<?xml version="1.0" ?>
<VTKFile byte_order="LittleEndian" type="PolyData" version="0.1">
  <PolyData>
    <Piece NumberOfPoints="416" NumberOfPolys="828">
      <Points>
        <DataArray NumberOfComponents="3" format="ascii" type="Float32">-1.92000001675e-07 0.0 -1.10000001996e-07 0.0 1.92000001675e-07 -1.10000001996e-07 1.92000001675e-07 0.0 -1.10000001996e-07 0.0 -1.92000001675e-07 -1.10000001996e-07 -2.41999998707e-07 0.0 -5.9999997859e-08 0.0 2.41999998707e-07 -5.9999997859e-08 2.41999998707e-07 0.0 -5.9999997859e-08 0.0 -2.41999998707e-07 -5.9999997859e-08 -2.41999998707e-07 0.0 5.9999997859e-08 0.0 2.41999998707e-07 5.9999997859e-08 2.41999998707e-07 0.0 5.9999997859e-08 0.0 -2.41999998707e-07 5.9999997859e-08 -1.92000001675e-07 0.0 1.10000001996e-07 0.0 1.92000001675e-07 1.10000001996e-07 1.92000001675e-07 0.0 1.10000001996e-07 0.0 -1.92000001675e-07 1.10000001996e-07 -1.87186159906e-07 4.27240181011e-08 -1.10000001996e-07 -1.72986020175e-07 8.33056787997e-08 -1.10000001996e-07 -1.5011164578e-07 1.19710037438e-07 -1.10000001996e-07 -1.19710037438e-07 1.5011164578e-07 -1.10000001996e-07 -8.33056787997e-08 1.72986020175e-07 -1.10000001996e-07 -4.27240181011e-08 1.87186159906e-07 -1.10000001996e-07 4.27240181011e-08 1.87186159906e-07 -1.10000001996e-07 8.33056787997e-08 1.72986020175e-07 -1.10000001996e-07 1.19710037438e-07 1.5011164578e-07 -1.10000001996e-07 1.5011164578e-07 1.19710037438e-07 -1.10000001996e-07 1.72986020175e-07 8.33056787997e-08 -1.10000001996e-07 1.87186159906e-07 4.27240181011e-08 -1.10000001996e-07 1.87186159906e-07 -4.27240181011e-08 -1.10000001996e-07 1.72986020175e-07 -8.33056787997e-08 -1.10000001996e-07 1.5011164578e-07 -1.19710037438e-07 -1.10000001996e-07 1.19710037438e-07 -1.5011164578e-07 -1.10000001996e-07 8.33056787997e-08 -1.72986020175e-07 -1.10000001996e-07 4.27240181011e-08 -1.87186159906e-07 -1.10000001996e-07 -4.27240181011e-08 -1.87186159906e-07 -1.10000001996e-07 -8.33056787997e-08 -1.72986020175e-07 -1.10000001996e-07 -1.19710037438e-07 -1.5011164578e-07 -1.10000001996e-07 -1.5011164578e-07 -1.19710037438e-07 -1.10000001996e-07 -1.72986020175e-07 -8.33056787997e-08 -1.10000001996e-07 -1.87186159906e-07 -4.27240181011e-08 -1.10000001996e-07 -2.37350036514e-07 4.72118593109e-08 -5.9999997859e-08 -2.23578851433e-07 9.26093903786e-08 -5.9999997859e-08 -2.01215641482e-07 1.34448001177e-07 -5.9999997859e-08 -1.71119836523e-07 1.71119836523e-07 -5.9999997859e-08 -1.34448001177e-07 2.01215641482e-07 -5.9999997859e-08 -9.26093903786e-08 2.23578851433e-07 -5.9999997859e-08 -4.72118593109e-08 2.37350036514e-07 -5.9999997859e-08 4.72118593109e-08 2.37350036514e-07 -5.9999997859e-08 9.26093903786e-08 2.23578851433e-07 -5.9999997859e-08 1.34448001177e-07 2.01215641482e-07 -5.9999997859e-08 1.71119836523e-07 1.71119836523e-07 -5.9999997859e-08 2.01215641482e-07 1.34448001177e-07 -5.9999997859e-08 2.23578851433e-07 9.26093903786e-08 -5.9999997859e-08 2.37350036514e-07 4.72118593109e-08 -5.9999997859e-08 2.37350036514e-07 -4.72118593109e-08 -5.9999997859e-08 2.23578851433e-07 -9.26093903786e-08 -5.9999997859e-08 2.01215641482e-07 -1.34448001177e-07 -5.9999997859e-08 1.71119836523e-07 -1.71119836523e-07 -5.9999997859e-08 1.34448001177e-07 -2.01215641482e-07 -5.9999997859e-08 9.26093903786e-08 -2.23578851433e-07 -5.9999997859e-08 4.72118593109e-08 -2.37350036514e-07 -5.9999997859e-08 -4.72118593109e-08 -2.37350036514e-07 -5.9999997859e-08 -9.26093903786e-08 -2.23578851433e-07 -5.9999997859e-08 -1.34448001177e-07 -2.01215641482e-07 -5.9999997859e-08 -1.71119836523e-07 -1.71119836523e-07 -5.9999997859e-08 -2.01215641482e-07 -1.34448001177e-07 -5.9999997859e-08 -2.23578851433e-07 -9.26093903786e-08 -5.9999997859e-08 -2.37350036514e-07 -4.72118593109e-08 -5.9999997859e-08 -2.37350036514e-07 4.72118593109e-08 5.9999997859e-08 -2.23578851433e-07 9.26093903786e-08 5.9999997859e-08 -2.01215641482e-07 1.34448001177e-07 5.9999997859e-08 -1.71119836523e-07 1.71119836523e-07 5.9999997859e-08 -1.34448001177e-07 2.01215641482e-07 5.9999997859e-08 -9.26093903786e-08 2.23578851433e-07 5.9999997859e-08 -4.72118593109e-08 2.37350036514e-07 5.9999997859e-08 4.72118593109e-08 2.37350036514e-07 5.9999997859e-08 9.26093903786e-08 2.23578851433e-07 5.9999997859e-08 1.34448001177e-07 2.01215641482e-07 5.9999997859e-08 1.71119836523e-07 1.71119836523e-07 5.9999997859e-08 2.01215641482e-07 1.34448001177e-07 5.9999997859e-08 2.23578851433e-07 9.26093903786e-08 5.9999997859e-08 2.37350036514e-07 4.72118593109e-08 5.9999997859e-08 2.37350036514e-07 -4.72118593109e-08 5.9999997859e-08 2.23578851433e-07 -9.26093903786e-08 5.9999997859e-08 2.01215641482e-07 -1.34448001177e-07 5.9999997859e-08 1.71119836523e-07 -1.71119836523e-07 5.9999997859e-08 1.34448001177e-07 -2.01215641482e-07 5.9999997859e-08 9.26093903786e-08 -2.23578851433e-07 5.9999997859e-08 4.72118593109e-08 -2.37350036514e-07 5.9999997859e-08 -4.72118593109e-08 -2.37350036514e-07 5.9999997859e-08 -9.26093903786e-08 -2.23578851433e-07 5.9999997859e-08 -1.34448001177e-07 -2.01215641482e-07 5.9999997859e-08 -1.71119836523e-07 -1.71119836523e-07 5.9999997859e-08 -2.01215641482e-07 -1.34448001177e-07 5.9999997859e-08 -2.23578851433e-07 -9.26093903786e-08 5.9999997859e-08 -2.37350036514e-07 -4.72118593109e-08 5.9999997859e-08 -1.87186159906e-07 4.27240181011e-08 1.10000001996e-07 -1.72986020175e-07 8.33056787997e-08 1.10000001996e-07 -1.5011164578e-07 1.19710037438e-07 1.10000001996e-07 -1.19710037438e-07 1.5011164578e-07 1.10000001996e-07 -8.33056787997e-08 1.72986020175e-07 1.10000001996e-07 -4.27240181011e-08 1.87186159906e-07 1.10000001996e-07 4.27240181011e-08 1.87186159906e-07 1.10000001996e-07 8.33056787997e-08 1.72986020175e-07 1.10000001996e-07 1.19710037438e-07 1.5011164578e-07 1.10000001996e-07 1.5011164578e-07 1.19710037438e-07 1.10000001996e-07 1.72986020175e-07 8.33056787997e-08 1.10000001996e-07 1.87186159906e-07 4.27240181011e-08 1.10000001996e-07 1.87186159906e-07 -4.27240181011e-08 1.10000001996e-07 1.72986020175e-07 -8.33056787997e-08 1.10000001996e-07 1.5011164578e-07 -1.19710037438e-07 1.10000001996e-07 1.19710037438e-07 -1.5011164578e-07 1.10000001996e-07 8.33056787997e-08 -1.72986020175e-07 1.10000001996e-07 4.27240181011e-08 -1.87186159906e-07 1.10000001996e-07 -4.27240181011e-08 -1.87186159906e-07 1.10000001996e-07 -8.33056787997e-08 -1.72986020175e-07 1.10000001996e-07 -1.19710037438e-07 -1.5011164578e-07 1.10000001996e-07 -1.5011164578e-07 -1.19710037438e-07 1.10000001996e-07 -1.72986020175e-07 -8.33056787997e-08 1.10000001996e-07 -1.87186159906e-07 -4.27240181011e-08 1.10000001996e-07 -2.27355343441e-07 0.0 -9.53553396243e-08 0.0 2.27355343441e-07 -9.53553396243e-08 2.27355343441e-07 0.0 -9.53553396243e-08 0.0 -2.27355343441e-07 -9.53553396243e-08 -2.27355343441e-07 0.0 9.53553396243e-08 0.0 2.27355343441e-07 9.53553396243e-08 2.27355343441e-07 0.0 9.53553396243e-08 0.0 -2.27355343441e-07 9.53553396243e-08 -2.41999998707e-07 0.0 -1.99999998785e-08 -2.41999998707e-07 0.0 1.99999998785e-08 0.0 2.41999998707e-07 -1.99999998785e-08 0.0 2.41999998707e-07 1.99999998785e-08 2.41999998707e-07 0.0 -1.99999998785e-08 2.41999998707e-07 0.0 1.99999998785e-08 0.0 -2.41999998707e-07 -1.99999998785e-08 0.0 -2.41999998707e-07 1.99999998785e-08 4.26537312137e-08 -1.26742323303e-08 -1.10000001996e-07 -3.13025090293e-08 5.22174747886e-09 -1.10000001996e-07 4.51158186365e-08 -1.21074222648e-07 -1.10000001996e-07 1.10048581803e-07 -5.68393190292e-08 -1.10000001996e-07 1.43824109955e-07 -1.60426356643e-08 -1.10000001996e-07 -1.03375548122e-07 -5.00856067731e-08 -1.10000001996e-07 1.07740646627e-07 4.86373323838e-08 -1.10000001996e-07 -6.44505817604e-08 9.20432086104e-08 -1.10000001996e-07 -1.9646448024e-08 -1.5119783825e-07 -1.10000001996e-07 -3.1094391062e-08 7.53365867467e-08 -1.10000001996e-07 8.99713938907e-08 -1.17641869579e-08 -1.10000001996e-07 2.54627998686e-08 -8.53002433132e-08 -1.10000001996e-07 -1.47819122276e-07 4.56858266773e-08 -1.10000001996e-07 6.87775383312e-08 -8.28844619605e-08 -1.10000001996e-07 1.14432793907e-07 -1.05964886643e-07 -1.10000001996e-07 1.83192909731e-08 -1.56162911935e-07 -1.10000001996e-07 -1.4522946401e-07 -7.10712910745e-08 -1.10000001996e-07 8.43416003704e-08 -1.31638913103e-07 -1.10000001996e-07 1.50971104063e-07 -5.55669501523e-08 -1.10000001996e-07 1.4006778315e-07 -8.46402983257e-08 -1.10000001996e-07 2.77657701275e-08 5.83680659361e-08 -1.10000001996e-07 -1.13841025495e-08 3.95316241963e-08 -1.10000001996e-07 -2.5527844727e-08 -3.6663028169e-08 -1.10000001996e-07 6.75717046761e-08 7.15373289495e-08 -1.10000001996e-07 6.76825635537e-08 2.88133108484e-08 -1.10000001996e-07 -5.4850197273e-08 -1.45941115193e-07 -1.10000001996e-07 -1.03979658661e-07 -9.853016536e-08 -1.10000001996e-07 5.08402244748e-08 1.40922693959e-07 -1.10000001996e-07 -5.83726880166e-08 -6.62671695295e-08 -1.10000001996e-07 -6.30533278922e-08 -2.61693529069e-08 -1.10000001996e-07 -1.09679717752e-07 9.96423494826e-08 -1.10000001996e-07 1.65985492018e-09 -4.21536716644e-09 -1.10000001996e-07 1.12365846405e-07 1.66997846662e-08 -1.10000001996e-07 1.18717061071e-07 8.21581735977e-08 -1.10000001996e-07 -1.88047906136e-08 -8.31586604022e-08 -1.10000001996e-07 -5.26660990374e-08 4.33633786656e-08 -1.10000001996e-07 -1.03003756635e-07 5.24155083781e-08 -1.10000001996e-07 4.8536299424e-09 -1.21464765357e-07 -1.10000001996e-07 4.18306811412e-08 -5.10556930067e-08 -1.10000001996e-07 -1.21814863974e-07 1.17724860971e-08 -1.10000001996e-07 -3.6725666952e-09 8.8919811958e-08 -1.10000001996e-07 -4.74581760557e-08 1.39963418633e-07 -1.10000001996e-07 -1.36349299851e-07 -2.71714615252e-08 -1.10000001996e-07 5.47612835078e-08 -1.53809651238e-07 -1.10000001996e-07 -7.69369847831e-08 1.16851452958e-08 -1.10000001996e-07 -1.00933576164e-07 -1.63342157578e-08 -1.10000001996e-07 -1.83009685184e-09 1.28936505916e-07 -1.10000001996e-07 -1.37070188089e-07 7.94280978766e-08 -1.10000001996e-07 -8.52412256336e-08 1.30480003691e-07 -1.10000001996e-07 3.14172901028e-08 9
[...]
      <CellData>
        <DataArray Name="rho_m_real" format="ascii" type="Float32">-81123.0488586 -204151.491656 -773616.578294 -407325.034386 -546659.152981 -570301.966428 -246818.809816 -491975.375245 -700143.00327 -124629.046829 -271133.630098 -198789.922357 -278113.270223 -345854.004835 -582949.46418 -535326.24471 -606742.834481 184142.069494 -294293.908797 -439665.427817 -407046.354103 -691635.837725 -242082.392469 14965.2430099 -414445.772873 -435029.380613 -210335.328192 -117874.196389 147129.856105 250523.369221 112788.197896 329581.745349 533912.981266 563523.080453 -198953.451983 -591007.704037 -751846.784169 -35571.7987554 -239644.583798 -546613.652659 -678646.424266 411997.999444 509035.906777 654396.073477 607354.944529 -428703.122376 -433911.948189 -102792.820151 254636.956793 -535017.707721 -728820.533737 -655328.250218 560812.656051 412631.070531 -431171.438856 -526921.444651 562134.180608 330990.751262 491453.383817 -830906.60549 -813407.771159 -820552.40169 -816397.788646 210554.163735 633150.922813 -24674.4842808 522323.161752 320899.308139 263163.29007 422124.989539 347589.620381 866851.356438 803455.993795 474985.360887 427677.167953 813334.839357 848418.451019 -487377.927148 -609750.957316 -543407.884859 215006.808093 451897.669041 24526.4815171 -852351.816283 -784324.13287 -646612.525534 131326.537324 396711.210009 -761097.993621 763861.259567 -708125.485494 -681380.878312 822185.224519 140693.627215 287321.476464 221857.12601 356983.508105 690926.949218 760713.287836 727595.002438 -618993.592581 -740726.107616 -815302.688241 -823489.555034 137521.694753 79969.6459428 25287.4021728 478844.079879 629566.465574 520112.873307 780516.193984 725216.521902 776001.907278 659456.397637 20862.0402425 196314.951179 612944.473297 585215.02389 305054.748069 443631.246747 -662286.437226 -238575.890896 -332960.413653 -333615.670477 -223521.45861 -406948.257529 -699736.449171 -550852.738188 -603399.799748 -272392.977656 -255061.425284 -71022.0006653 -287665.170083 -521896.450951 -540568.954476 482454.051938 593617.765519 699061.68152 -29193.344127 100235.541644 20782.72287 130020.372871 -1420.91827935 -78938.1167672 663744.072046 789185.872566 563665.596673 679531.890137 783374.40682 790250.908093 565831.82655 668917.457583 -559192.118401 -581325.810079 -414659.91035 -627162.237584 306905.83515 -691786.71448 -88235.890106 -508244.80832 -554475.990022 586810.726829 -820211.01627 -803464.009588 724785.066581 -721924.359177 460873.117049 -507729.273002 -623630.617647 629953.129821 -382038.926548 488539.679515 555196.829596 -385678.777343 1053.69537087 -281224.128908 -66777.6456176 567776.962433 -649176.276361 -316092.302663 -722513.277611 259763.821402 -136106.504434 427054.270144 95908.5453598 -301282.990712 427444.002557 431093.088202 -257776.476722 -407266.202731 -844330.26487 -836483.125042 -197607.642776 414645.469 186251.995057 -63428.9268257 86095.3563344 319781.069321 312640.342268 147599.627569 418297.930714 170009.716934 323898.533972 421634.521941 451945.586469 786317.472911 614230.032367 716805.885637 -552103.546445 -718573.209717 -524895.142295 -612734.513654 201556.371314 414162.695171 771914.785851 -239600.129067 -444363.126645 -181736.60979 30512.2946897 -100393.66625 -250894.393424 -274784.632332 -83395.7513486 -206762.634974 673676.567335 279562.860635 70808.9392019 335915.839958 -320671.6209 -416405.56204 75881.7599706 -16403.9875802 -37553.4459674 530711.635704 -547738.280786 -555567.999972 -842049.694158 -753036.738267 219376.843619 399754.109129 -797946.274161 -765989.983065 -829095.189325 -749738.377178 518901.261267 634118.463314 -250542.656655 -428734.561722 -315328.829836 -174138.723513 -651578.115584 -575240.580488 -502520.32528 -513047.234817 809006.661239 -202115.255594 -314470.672829 -656871.13571 -565610.323524 719055.973142 645922.654243 635359.259048 -452399.207884 -438287.249234 -461228.405714 -592882.148316 486896.458068 570349.492903 516821.054744 584265.535294 704809.200722 -590475.104094 -694967.894588 861727.879787 790356.138515 767809.871089 844631.368155 36599.1786403 166230.490395 225870.181879 579789.01744 569735.200807 450702.158249 133457.890579 243472.853599 190091.68419 302118.746842 302824.182777 -62524.6474075 1332.70113053 -166729.548237 291227.859027 143652.613439 119462.263479 657748.002853 725829.712508 531699.923226 650918.358882 521226.85804 509594.499288 -37653.3031263 -12997.7417245 120243.050585 -120030.559058 63495.5419059 10383.1708307 -64190.5591199 -17939.1319383 -41632.2573643 36573.269062 160.609974201 82350.8663472 15619.0842844 -80088.8018413 -15012.9832834 112861.56591 -114579.445011 60895.0457765 20256.2630776 -63561.8314155 -28597.1261763 40763.9395506 8838.38039236 66715.9348687 28038.0937915 -71433.8221683 -30790.9860761 -2380.0683726 1018.6378974 -102969.803027 -59448.1490502 104800.905548 55977.6211271 67400.6914264 -136844.714054 -52816.3926171 -101769.938902 15039.7815405 2049.68615067 138880.802312 53325.7363467 103858.982732 100853.455571 45217.1590482 -102731.85251 -44517.5664277 1538.29168503 12383.323781 17413.0690479 -2101.47105713 216.291066545 -1083.71812245 1445.70745827 -69622.1582702 -16468.9785363 2643.099109 183.907006683 -21929.9008654 -116980.2688 -72925.8924702 42682.3322876 -41739.5598142 116652.558615 14978.1000747 -112324.510985 -36359.6172732 -79591.4104956 114178.723376 11724.8073233 102994.680488 17748.0617355 -97381.5616549 -15263.9777738 91557.7096992 -91585.4964629 91684.8577516 38858.2152434 -97621.6841598 -44590.9110855 100670.332734 30016.6894702 73210.8505229 30445.6841624 -78033.6658384 -32681.3113108 -7331.55866712 -899.712087399 -56655.0503818 -46322.1341115 57783.2400461 44239.6451088 21836.8650528 -15406.6013328 -2049.53677476 -2139.70700101 137992.313147 102994.180541 15106.8378447 2435.28777618 1350.05462596 13110.058603 11534.9307713 -13765.206625 -11924.5465916 47550.092566 40380.0193937 111023.78559 -1122.54683002 373.673021222 -704.615151476 354.485131836 -23096.5775381 -153315.126965 -51118.7418537 -101839.137966 -104031.505468 38138.2600779 12670.3891947 -121677.043569 120123.773197 -65140.668945 -10935.4499805 63681.4274334 17344.4527392 41446.1023143 -37200.4032843 -757.940312019 -83350.6350928 -16229.8071842 79291.1419218 14417.136676 -113548.906015 112925.985688 -61820.5941605 -20699.6660018 63009.5797194 28189.5340344 -41416.6404399 -9347.92084103 -67186.9456958 -28625.0707598 71015.0268469 30451.8444463 2051.15553373 -923.154736748 102545.431918 59043.7196095 -105505.3784 -56203.0123744 -67573.5534901 137005.810315 52946.048916 101857.856993 -15342.2138262 -2463.87935563 -139027.826544 -53243.4314613 -103593.596182 -100710.050392 -44947.011938 102753.228221 44465.0580069 -1935.41553634 -12829.150865 -17711.0386016 1675.58131228 -408.725823628 1181.34007754 -1382.90770254 69636.6814921 16243.8390879 -2976.45789141 -548.008374695 22014.8099345 117226.077268 73024.7013322 -42530.3880302 41740.0371221 -116600.736755 -14511.8988351 115178.648867 36515.5831076 79730.4180107 -113506.55123 -11392.368815 -102890.496202 -17366.0254689 99288.4008919 15682.3513381 -91449.0648622 93232.3064944 -91626.5100142 -38506.9035253 98389.5552082 44390.1509072 -100339.10433 -29807.6117551 -72846.0556466 -30144.1159158 78707.0574068 32686.2057693 7543.40053511 654.847181705 56188.0963436 46418.8583118 -58006.3284349 -44063.6044035 -22046.9741922 15135.4258399 1867.82470185 1783.97324935 -137763.925017 -102793.204535 -15132.8747138 -2705.97421386 -1766.26611276 -13219.3508459 -11927.0198206 13821.3463174 11652.2784417 -47279.7866717 -40161.8928401 -110868.335415 1354.28453712 -84.2667023011 352.868641671 -347.037117665 22958.583445 153396.858962 51411.1036788 102018.492226 104040.463748 412007.654079 227128.507296 251899.005894 313295.115397 252715.931136 111000.582452 159095.396147 234529.501165 152161.413619 336339.689395 176063.605189 197645.754855 266475.389234 445439.000977 230556.206256 358474.804632 289744.436134 152995.833839 60579.8240644 161799.907303 103916.349483 67771.4573794 22116.4811497 462727.906244 406694.770334 20025.2407917 18576.0866676 198931.028745 259138.515534 312043.761965 399903.496474 19142.7340179 52930.024119 276659.330352 322871.008391 46522.2205917 54893.2005033 239117.563565 123339.43684 158685.347152 220369.463914 413055.270002 212298.455953 251739.539311 334803.066375 185656.598468 323496.078204 152678.014688 193743.271157 297839.871149 150769.837291 61044.9011699 168298.767908 105326.331648 431655.254873 225424.092053 361450.877377 290873.006966 460099.921955 408603.235745 34979.3528588 22619.7108666 198966.396621 258175.716643 20178.0874086 17761.6190448 25779.2165471 55365.7189513 311051.378818 401814.47701 41811.6520874 56381.4940673 280048.816332 324524.367059 -405342.398523 -228206.506286 -250461.350787 -311548.650354 -251885.476716 -110935.06563 -157107.100208 -240038.513145 -153730.921818 -339212.390653 -176614.227371 -195948.139645 -268931.633592 -440112.200515 -229328.469138 -362395.612844 -285671.906554 -146655.892204 -62094.1765384 -160674.358109 -103694.11762 -59628.9065401 -30321.7252674 -457798.443373 -405642.119214 -20604.7869739 -18450.7184074 -200022.312651 -258278.697767 -317881.904024 -399343.806113 -16038.1321401 -52160.1707739 -273214.740162 -323221.062797 -46813.2421443 -56457.2219263 -259294.959411 -122237.644666 -157586.769227 -214231.63332 -408237.468699 -211652.489648 -251240.983322 -336503.737489 -185687.838566 -329943.439727 -152784.905219 -193162.224629 -297108.948099 -142673.588374 -62831.4560174 -172668.509663 -105411.017051 -442347.410435 -225984.499645 -356277.922062 -291806.895955 -458994.48046 -403568.280659 -69281.8821631 -24499.5968011 -198255.038612 -257441.836168 -19970.4337275 -18444.7064429 -18259.1860979 -47411.7880367 -314256.042449 -408545.251693 -44066.6119451 -56797.437934 -280038.00918 -325063.49553 -225665.48269 -250420.447089 -415326.19941 -317081.18289 -111426.538577 -159900.540933 -241973.857662 -240564.124369 -151721.409706 -174376.91185 -199112.590629 -331326.647039 -265408.432029 -228674.624342 -447037.866655 -288417.149756 -357587.848397 -64855.5334457 -139592.639977 -104963.232468 -161935.700245 -57829.2873682 -26145.6049503 -464639.593161 -403682.603734 -23790.1236489 -16210.4707884 -197090.949736 -256921.783155 -317817.849763 -403621.393555 -19842.1891788 -54347.7099445 -275227.179468 -324392.794719 -49160.038004 -54440.0592011 -120075.648966 -157667.262262 -249954.608869 -220965.826182 -209499.23978 -256401.170808 -409810.981006 -333864.20966 -179266.437094 -151872.298869 -199605.335599 -326547.06973 -290247.787864 -62961.9923467 -131614.157174 -107030.592421 -170014.571552 -229282.428769 -435854.479356 -286958.497025 -361625.486125 -484624.862998 -400010.974447 -41052.3250361 -27795.1218502 -208290.764715 -250546.04398 -19426.6462811 -18073.9556958 -19976.3488509 -53451.087761 -319101.753028 -403576.296394 -44224.4317562 -61421.2622555 -285834.711909 -315342.779759 225042.786654 253479.476802 405356.383529 315802.51434 111918.461977 161040.552752 246074.625922 233930.85166 149632.817577 175081.437305 202151.383573 334393.805154 264679.736842 228487.164376 449916.692058 289226.18722 359015.562289 63791.9222829 144515.65394 103785.57799 165996.227613 58023.9608856 27791.4575341 460310.759623 400102.754248 24643.3484835 15897.641198 197162.615557 257426.110881 319021.353035 405660.770838 20999.0551034 50607.0387422 275500.403825 323206.808733 47735.886091 52911.0944814 122705.108272 158369.286135 233363.415942 213518.423727 207692.278517 248660.175698 416561.771717 343321.784298 183242.622661 149993.914443 192544.921343 330254.271435 303944.556033 61079.2509837 141990.201086 108285.546986 168915.156427 231279.387377 441412.903998 284623.257486 354401.498769 462753.587769 403011.60914 51518.3280837 25107.9078673 207959.324308 250728.78337 19916.671198 18225.6450666 19644.375917 54667.0770645 320581.077487 406546.024426 44267.198808 57334.9101773 285924.855011 316564.030223</DataArray>