<?xml version="1.0" ?>
<VTKFile byte_order="LittleEndian" type="PolyData" version="0.1">
  <PolyData>
    <Piece NumberOfPoints="416" NumberOfPolys="828">
      <Points>
        <DataArray NumberOfComponents="3" format="ascii" type="Float32">-1.92000001675e-07 0.0 -1.10000001996e-07 0.0 1.92000001675e-07 -1.10000001996e-07 1.92000001675e-07 0.0 -1.10000001996e-07 0.0 -1.92000001675e-07 -1.10000001996e-07 -2.41999998707e-07 0.0 -5.9999997859e-08 0.0 2.41999998707e-07 -5.9999997859e-08 2.41999998707e-07 0.0 -5.9999997859e-08 0.0 -2.41999998707e-07 -5.9999997859e-08 -2.41999998707e-07 0.0 5.9999997859e-08 0.0 2.41999998707e-07 5.9999997859e-08 2.41999998707e-07 0.0 5.9999997859e-08 0.0 -2.41999998707e-07 5.9999997859e-08 -1.92000001675e-07 0.0 1.10000001996e-07 0.0 1.92000001675e-07 1.10000001996e-07 1.92000001675e-07 0.0 1.10000001996e-07 0.0 -1.92000001675e-07 1.10000001996e-07 -1.87186159906e-07 4.27240181011e-08 -1.10000001996e-07 -1.72986020175e-07 8.33056787997e-08 -1.10000001996e-07 -1.5011164578e-07 1.19710037438e-07 -1.10000001996e-07 -1.19710037438e-07 1.5011164578e-07 -1.10000001996e-07 -8.33056787997e-08 1.72986020175e-07 -1.10000001996e-07 -4.27240181011e-08 1.87186159906e-07 -1.10000001996e-07 4.27240181011e-08 1.87186159906e-07 -1.10000001996e-07 8.33056787997e-08 1.72986020175e-07 -1.10000001996e-07 1.19710037438e-07 1.5011164578e-07 -1.10000001996e-07 1.5011164578e-07 1.19710037438e-07 -1.10000001996e-07 1.72986020175e-07 8.33056787997e-08 -1.10000001996e-07 1.87186159906e-07 4.27240181011e-08 -1.10000001996e-07 1.87186159906e-07 -4.27240181011e-08 -1.10000001996e-07 1.72986020175e-07 -8.33056787997e-08 -1.10000001996e-07 1.5011164578e-07 -1.19710037438e-07 -1.10000001996e-07 1.19710037438e-07 -1.5011164578e-07 -1.10000001996e-07 8.33056787997e-08 -1.72986020175e-07 -1.10000001996e-07 4.27240181011e-08 -1.87186159906e-07 -1.10000001996e-07 -4.27240181011e-08 -1.87186159906e-07 -1.10000001996e-07 -8.33056787997e-08 -1.72986020175e-07 -1.10000001996e-07 -1.19710037438e-07 -1.5011164578e-07 -1.10000001996e-07 -1.5011164578e-07 -1.19710037438e-07 -1.10000001996e-07 -1.72986020175e-07 -8.33056787997e-08 -1.10000001996e-07 -1.87186159906e-07 -4.27240181011e-08 -1.10000001996e-07 -2.37350036514e-07 4.72118593109e-08 -5.9999997859e-08 -2.23578851433e-07 9.26093903786e-08 -5.9999997859e-08 -2.01215641482e-07 1.34448001177e-07 -5.9999997859e-08 -1.71119836523e-07 1.71119836523e-07 -5.9999997859e-08 -1.34448001177e-07 2.01215641482e-07 -5.9999997859e-08 -9.26093903786e-08 2.23578851433e-07 -5.9999997859e-08 -4.72118593109e-08 2.37350036514e-07 -5.9999997859e-08 4.72118593109e-08 2.37350036514e-07 -5.9999997859e-08 9.26093903786e-08 2.23578851433e-07 -5.9999997859e-08 1.34448001177e-07 2.01215641482e-07 -5.9999997859e-08 1.71119836523e-07 1.71119836523e-07 -5.9999997859e-08 2.01215641482e-07 1.34448001177e-07 -5.9999997859e-08 2.23578851433e-07 9.26093903786e-08 -5.9999997859e-08 2.37350036514e-07 4.72118593109e-08 -5.9999997859e-08 2.37350036514e-07 -4.72118593109e-08 -5.9999997859e-08 2.23578851433e-07 -9.26093903786e-08 -5.9999997859e-08 2.01215641482e-07 -1.34448001177e-07 -5.9999997859e-08 1.71119836523e-07 -1.71119836523e-07 -5.9999997859e-08 1.34448001177e-07 -2.01215641482e-07 -5.9999997859e-08 9.26093903786e-08 -2.23578851433e-07 -5.9999997859e-08 4.72118593109e-08 -2.37350036514e-07 -5.9999997859e-08 -4.72118593109e-08 -2.37350036514e-07 -5.9999997859e-08 -9.26093903786e-08 -2.23578851433e-07 -5.9999997859e-08 -1.34448001177e-07 -2.01215641482e-07 -5.9999997859e-08 -1.71119836523e-07 -1.71119836523e-07 -5.9999997859e-08 -2.01215641482e-07 -1.34448001177e-07 -5.9999997859e-08 -2.23578851433e-07 -9.26093903786e-08 -5.9999997859e-08 -2.37350036514e-07 -4.72118593109e-08 -5.9999997859e-08 -2.37350036514e-07 4.72118593109e-08 5.9999997859e-08 -2.23578851433e-07 9.26093903786e-08 5.9999997859e-08 -2.01215641482e-07 1.34448001177e-07 5.9999997859e-08 -1.71119836523e-07 1.71119836523e-07 5.9999997859e-08 -1.34448001177e-07 2.01215641482e-07 5.9999997859e-08 -9.26093903786e-08 2.23578851433e-07 5.9999997859e-08 -4.72118593109e-08 2.37350036514e-07 5.9999997859e-08 4.72118593109e-08 2.37350036514e-07 5.9999997859e-08 9.26093903786e-08 2.23578851433e-07 5.9999997859e-08 1.34448001177e-07 2.01215641482e-07 5.9999997859e-08 1.71119836523e-07 1.71119836523e-07 5.9999997859e-08 2.01215641482e-07 1.34448001177e-07 5.9999997859e-08 2.23578851433e-07 9.26093903786e-08 5.9999997859e-08 2.37350036514e-07 4.72118593109e-08 5.9999997859e-08 2.37350036514e-07 -4.72118593109e-08 5.9999997859e-08 2.23578851433e-07 -9.26093903786e-08 5.9999997859e-08 2.01215641482e-07 -1.34448001177e-07 5.9999997859e-08 1.71119836523e-07 -1.71119836523e-07 5.9999997859e-08 1.34448001177e-07 -2.01215641482e-07 5.9999997859e-08 9.26093903786e-08 -2.23578851433e-07 5.9999997859e-08 4.72118593109e-08 -2.37350036514e-07 5.9999997859e-08 -4.72118593109e-08 -2.37350036514e-07 5.9999997859e-08 -9.26093903786e-08 -2.23578851433e-07 5.9999997859e-08 -1.34448001177e-07 -2.01215641482e-07 5.9999997859e-08 -1.71119836523e-07 -1.71119836523e-07 5.9999997859e-08 -2.01215641482e-07 -1.34448001177e-07 5.9999997859e-08 -2.23578851433e-07 -9.26093903786e-08 5.9999997859e-08 -2.37350036514e-07 -4.72118593109e-08 5.9999997859e-08 -1.87186159906e-07 4.27240181011e-08 1.10000001996e-07 -1.72986020175e-07 8.33056787997e-08 1.10000001996e-07 -1.5011164578e-07 1.19710037438e-07 1.10000001996e-07 -1.19710037438e-07 1.5011164578e-07 1.10000001996e-07 -8.33056787997e-08 1.72986020175e-07 1.10000001996e-07 -4.27240181011e-08 1.87186159906e-07 1.10000001996e-07 4.27240181011e-08 1.87186159906e-07 1.10000001996e-07 8.33056787997e-08 1.72986020175e-07 1.10000001996e-07 1.19710037438e-07 1.5011164578e-07 1.10000001996e-07 1.5011164578e-07 1.19710037438e-07 1.10000001996e-07 1.72986020175e-07 8.33056787997e-08 1.10000001996e-07 1.87186159906e-07 4.27240181011e-08 1.10000001996e-07 1.87186159906e-07 -4.27240181011e-08 1.10000001996e-07 1.72986020175e-07 -8.33056787997e-08 1.10000001996e-07 1.5011164578e-07 -1.19710037438e-07 1.10000001996e-07 1.19710037438e-07 -1.5011164578e-07 1.10000001996e-07 8.33056787997e-08 -1.72986020175e-07 1.10000001996e-07 4.27240181011e-08 -1.87186159906e-07 1.10000001996e-07 -4.27240181011e-08 -1.87186159906e-07 1.10000001996e-07 -8.33056787997e-08 -1.72986020175e-07 1.10000001996e-07 -1.19710037438e-07 -1.5011164578e-07 1.10000001996e-07 -1.5011164578e-07 -1.19710037438e-07 1.10000001996e-07 -1.72986020175e-07 -8.33056787997e-08 1.10000001996e-07 -1.87186159906e-07 -4.27240181011e-08 1.10000001996e-07 -2.27355343441e-07 0.0 -9.53553396243e-08 0.0 2.27355343441e-07 -9.53553396243e-08 2.27355343441e-07 0.0 -9.53553396243e-08 0.0 -2.27355343441e-07 -9.53553396243e-08 -2.27355343441e-07 0.0 9.53553396243e-08 0.0 2.27355343441e-07 9.53553396243e-08 2.27355343441e-07 0.0 9.53553396243e-08 0.0 -2.27355343441e-07 9.53553396243e-08 -2.41999998707e-07 0.0 -1.99999998785e-08 -2.41999998707e-07 0.0 1.99999998785e-08 0.0 2.41999998707e-07 -1.99999998785e-08 0.0 2.41999998707e-07 1.99999998785e-08 2.41999998707e-07 0.0 -1.99999998785e-08 2.41999998707e-07 0.0 1.99999998785e-08 0.0 -2.41999998707e-07 -1.99999998785e-08 0.0 -2.41999998707e-07 1.99999998785e-08 4.26537312137e-08 -1.26742323303e-08 -1.10000001996e-07 -3.13025090293e-08 5.22174747886e-09 -1.10000001996e-07 4.51158186365e-08 -1.21074222648e-07 -1.10000001996e-07 1.10048581803e-07 -5.68393190292e-08 -1.10000001996e-07 1.43824109955e-07 -1.60426356643e-08 -1.10000001996e-07 -1.03375548122e-07 -5.00856067731e-08 -1.10000001996e-07 1.07740646627e-07 4.86373323838e-08 -1.10000001996e-07 -6.44505817604e-08 9.20432086104e-08 -1.10000001996e-07 -1.9646448024e-08 -1.5119783825e-07 -1.10000001996e-07 -3.1094391062e-08 7.53365867467e-08 -1.10000001996e-07 8.99713938907e-08 -1.17641869579e-08 -1.10000001996e-07 2.54627998686e-08 -8.53002433132e-08 -1.10000001996e-07 -1.47819122276e-07 4.56858266773e-08 -1.10000001996e-07 6.87775383312e-08 -8.28844619605e-08 -1.10000001996e-07 1.14432793907e-07 -1.05964886643e-07 -1.10000001996e-07 1.83192909731e-08 -1.56162911935e-07 -1.10000001996e-07 -1.4522946401e-07 -7.10712910745e-08 -1.10000001996e-07 8.43416003704e-08 -1.31638913103e-07 -1.10000001996e-07 1.50971104063e-07 -5.55669501523e-08 -1.10000001996e-07 1.4006778315e-07 -8.46402983257e-08 -1.10000001996e-07 2.77657701275e-08 5.83680659361e-08 -1.10000001996e-07 -1.13841025495e-08 3.95316241963e-08 -1.10000001996e-07 -2.5527844727e-08 -3.6663028169e-08 -1.10000001996e-07 6.75717046761e-08 7.15373289495e-08 -1.10000001996e-07 6.76825635537e-08 2.88133108484e-08 -1.10000001996e-07 -5.4850197273e-08 -1.45941115193e-07 -1.10000001996e-07 -1.03979658661e-07 -9.853016536e-08 -1.10000001996e-07 5.08402244748e-08 1.40922693959e-07 -1.10000001996e-07 -5.83726880166e-08 -6.62671695295e-08 -1.10000001996e-07 -6.30533278922e-08 -2.61693529069e-08 -1.10000001996e-07 -1.09679717752e-07 9.96423494826e-08 -1.10000001996e-07 1.65985492018e-09 -4.21536716644e-09 -1.10000001996e-07 1.12365846405e-07 1.66997846662e-08 -1.10000001996e-07 1.18717061071e-07 8.21581735977e-08 -1.10000001996e-07 -1.88047906136e-08 -8.31586604022e-08 -1.10000001996e-07 -5.26660990374e-08 4.33633786656e-08 -1.10000001996e-07 -1.03003756635e-07 5.24155083781e-08 -1.10000001996e-07 4.8536299424e-09 -1.21464765357e-07 -1.10000001996e-07 4.18306811412e-08 -5.10556930067e-08 -1.10000001996e-07 -1.21814863974e-07 1.17724860971e-08 -1.10000001996e-07 -3.6725666952e-09 8.8919811958e-08 -1.10000001996e-07 -4.74581760557e-08 1.39963418633e-07 -1.10000001996e-07 -1.36349299851e-07 -2.71714615252e-08 -1.10000001996e-07 5.47612835078e-08 -1.53809651238e-07 -1.10000001996e-07 -7.69369847831e-08 1.16851452958e-08 -1.10000001996e-07 -1.00933576164e-07 -1.63342157578e-08 -1.10000001996e-07 -1.83009685184e-09 1.28936505916e-07 -1.10000001996e-07 -1.37070188089e-07 7.94280978766e-08 -1.10000001996e-07 -8.52412256336e-08 1.30480003691e-07 -1.10000001996e-07 3.14172901028e-08 9
[...]
      <CellData>
        <DataArray Name="rho_m_real" format="ascii" type="Float32">-107862.65515 -415832.314816 -1679541.10184 -450099.54686 -1085719.18449 -647083.99888 -303231.95101 -554637.06111 -1366308.6642 -142852.584792 -501790.285079 -210475.882576 -347092.143642 -609720.663336 -683811.309341 -747583.281741 -1110718.87739 190516.422912 -288942.231319 -625339.726442 -670039.679774 -1018122.07844 -180586.903509 33071.6406275 -622935.48067 -792663.659165 -522268.860632 -301701.202503 371646.271306 552434.370052 263142.138542 821587.746338 1302272.53277 1129658.88177 -287224.285942 -806856.605045 -1303765.08365 -85074.305454 -532693.714365 -609838.270956 -1003352.97052 918261.309575 1197837.37514 1551974.04184 1463251.09757 -982993.577359 -1045058.38415 -239825.997061 500675.91968 -571820.623099 -1251957.15849 -902596.085924 675040.221927 481266.60996 -522019.317049 -1099464.38708 681177.398432 401284.75721 1004343.66417 -1505339.17194 -1550684.27374 -1740126.13825 -1829424.20894 512667.063402 1452760.30932 -52928.4819232 1163228.04766 739934.420666 350858.177345 751967.074638 642459.970718 1886662.75748 1604197.0714 549251.993117 596079.626125 1605559.42703 1827119.83537 -517672.269034 -871358.40339 -805076.659784 538201.142027 1129574.96012 61194.0201604 -1653152.33955 -1410742.89612 -1336965.0908 319561.149489 970404.118052 -1458557.43385 1511133.96286 -1253925.7372 -1242055.84802 1870268.76552 101206.869001 437255.847344 429391.051971 675027.871938 1581502.20362 1757113.53132 1567902.95356 -1468664.7892 -1665586.22583 -1750197.92787 -1762669.1617 214594.035499 144230.302986 32569.377848 508369.823512 955000.306548 753310.853762 1731842.80234 1345475.81547 1578753.06029 1250773.31244 51716.1059404 420302.870916 1250287.5777 1032385.10929 306676.013404 665497.174708 -1523528.98079 -573947.07813 -802595.240894 -842267.487304 -560236.981714 -1009485.6183 -1654708.05809 -1343926.19166 -1457989.91412 -509486.91244 -538253.70006 -137928.293056 -638256.606304 -1147749.88784 -1245988.67579 505621.747717 839608.566707 1246133.89771 -52200.6065126 162732.312296 -20487.2284565 182682.23877 51438.0307734 -111643.027479 954306.666698 1381221.01444 607678.471336 989509.737507 1368166.4945 1404426.48532 606812.809451 914780.697946 602909.928415 674302.626178 458622.817023 892288.099802 -322216.436775 1050125.77985 113183.420139 594158.981138 823805.531273 -687296.582741 1690153.01219 1798249.9827 -1688699.4039 1688485.68904 -1144264.72584 1201170.86448 1510915.5338 -1512253.80812 848209.90826 -1149047.0182 -1338666.71234 958953.76791 -2394.27588276 687224.563304 154752.878598 -1270906.89003 1225868.05403 756408.615353 1562054.7147 -652921.162192 334102.223158 -1000314.34645 -222100.711649 595293.254742 -487061.665747 -602599.529244 220019.290113 570313.111571 1747538.52397 1873816.64051 378005.957288 -441970.426479 -165571.796642 127642.269184 -112978.503332 -367416.070722 -461000.419546 -186477.000087 -577632.516073 -416509.354915 -773619.754543 -809103.892594 -965473.570413 -1724044.53998 -1425335.61052 -1558921.77104 1335446.31493 1685580.37097 1112950.79069 1367948.97716 -506233.112998 -1025811.73325 -1790053.42619 599521.168851 1104174.03861 455873.280596 -75557.1932596 233200.104589 573579.290765 602206.061859 193920.298897 399247.830386 -1436140.35136 -680678.780272 -167883.821193 -580686.304126 362332.697542 765649.127981 -96918.9184302 26478.9180802 70957.6537872 -548522.280654 1079004.27234 640813.975325 1602277.4565 1477472.90343 -480713.022837 -884598.018418 1773984.59216 1397010.41807 1538870.19606 1529333.91873 -919881.28558 -1205428.08118 302576.202587 740258.734808 577328.565966 221526.975529 1517966.82794 1159838.00943 1113008.00448 1201670.26636 -1628521.47113 225616.696589 482142.344587 1177820.26105 1023763.12841 -1135871.15715 -1082458.61293 -1086222.59395 528812.211407 595172.624745 469079.338969 849878.322868 -510168.15559 -743384.67156 -650287.543769 -723551.127309 -1087837.45948 734353.885422 1102015.49002 -1671618.44783 -1608845.18105 -1364351.99585 -1797442.90938 -72071.6314664 -323557.939886 -401444.412412 -1156275.19004 -982589.393197 -902480.116618 -162000.91384 -455902.950038 -189777.260302 -418608.719993 -512241.58947 65884.655031 8810.43064674 264252.416205 -648713.839587 -315324.021616 -232358.451074 -1154242.98748 -1274051.57583 -557313.281946 -935584.275367 -587046.246828 -670783.188682 -271075.009196 -261903.067916 -742875.545742 -753903.763838 -362880.573288 -569841.38633 -361622.372301 -576345.059075 -397513.788622 -220872.604095 -343449.583137 -464963.490701 -744976.625725 -463703.421265 -738934.191401 -573061.437107 -576858.78108 -505393.203146 -643443.653306 -517192.75936 -611687.481731 -362833.311109 -436649.298084 -668544.942009 -857351.559893 -666798.011156 -854827.728945 -75979.8777456 -1242747.42106 -773678.744095 -888415.020636 -763919.139086 -912999.17484 -1008451.12898 -737941.592229 -1205295.2025 -948538.270983 -88718.2251749 -37432.939585 -733760.518621 -1220106.1063 -945802.377783 -928943.792047 -1199107.48815 -931995.187083 -1207423.76201 -117908.02199 -212533.13174 -199394.618737 -854375.727342 -1085892.66804 -1203810.67134 -1266100.36959 -985717.137701 -70690.0579627 -124254.301767 -25656.7143252 -109886.281801 -767376.648329 -1041152.88744 -194901.651938 -199594.622371 -692093.238412 -1141817.63092 -648686.274349 -1141140.50512 -909629.210641 -746611.371997 -1271252.85871 -578016.090365 -981610.650192 -586758.440874 -981755.920657 -513981.267791 -520711.560062 -766982.809235 -1019823.21094 -750636.114027 -935936.415577 -871362.520973 -1123302.05269 -686878.761853 -921974.405655 -681028.972961 -915311.463337 -1256958.75464 -79151.3608152 -421232.451958 -599540.264019 -415413.111752 -618575.401154 -433532.735414 -80620.1570955 -98065.8314355 -34665.8459254 -745033.866492 -951344.73668 -81971.2684447 -97952.9154805 -39360.5202839 -198793.773842 -209453.543655 -200649.687697 -210557.690915 -1234390.54436 -1160499.26941 -891979.484804 -852913.491676 -823310.694319 -247387.416907 -466651.593591 -424133.168592 -718095.807305 -1281936.01388 -908379.578792 -903159.808437 269122.750382 261495.027939 738977.153415 753504.518266 359395.250708 569289.493438 361928.672361 576308.699445 397051.601038 219591.607653 342672.179989 462858.184634 744711.733849 465586.438703 739373.089428 571766.344753 581508.928776 503767.635971 643022.242212 518326.318018 611824.255027 361297.143415 435864.510216 668158.78113 857574.603701 668169.020619 855455.584605 75560.5770822 1243418.95393 775707.752382 890259.912791 762457.283345 913434.263938 1008163.50348 738201.550208 1205805.15063 949121.304458 88093.9195294 36697.762594 733472.578992 1220535.94943 946916.940674 929076.225401 1199980.37135 932603.46144 1208128.91225 117336.584319 211401.692754 198497.461518 854844.384308 1086171.86651 1204579.23497 1267388.6875 986012.036356 70747.1615122 123812.774873 25733.110516 108877.387715 767047.698747 1041863.18171 196325.250003 199799.813068 693100.794406 1142151.5148 641724.318416 1141946.36262 909693.981824 747808.477664 1271790.69954 579625.886127 982070.819243 582772.274864 981885.555236 515864.49727 517597.202064 767939.268798 1020497.76487 749316.588537 937182.506331 872492.939876 1124142.4163 688418.437864 922577.739739 680213.297623 916346.253971 1257605.56684 79005.3357525 423193.21354 600196.668169 415502.125215 619546.583005 433983.868626 80963.8176499 97947.4205935 34852.5720949 745944.899753 952400.681844 82474.7216138 97943.3930941 38772.134099 199578.148414 209378.874003 200368.104531 210971.569019 1235170.77486 1161509.86903 893001.012003 853680.389273 824230.472262 247762.582552 467179.172087 425143.354583 718143.012426 1282431.92344 908730.295661 903838.423072 286860.491065 -371898.178834 -156058.126227 59606.8967251 186025.573758 -217607.704119 -180029.015383 62779.9965203 -313105.724338 199794.155636 -379791.475008 -174698.018278 5637.16312335 279873.923947 -432409.20598 65290.7208618 -180387.656821 113909.413286 -157515.07844 19957.6077249 -100794.84483 59258.030755 -12574.2032823 324890.333012 136723.293226 -59564.5826103 -7342.61477732 -501185.029393 -285861.455413 -117178.986472 94776.1256494 -5890.65341059 -22795.5090446 -252439.549418 -92617.4828819 -44219.6167154 -38956.6187682 149158.383653 -198688.74317 -142901.20939 21314.7348054 292055.489883 -384021.929158 -205127.258885 65272.1369137 -373212.970043 205955.17048 -297016.501707 -220603.238243 61035.9857543 105123.664713 -164194.265371 39012.1181759 -82725.0139344 261724.642084 -429494.853984 45710.8202879 -193536.659465 317092.438689 140452.252526 -6973.48226557 -9475.29259486 -497414.864311 -287169.835296 -61840.654743 -8889.75095184 7341.06440963 -15317.1873937 -117507.291079 94087.8981318 -49640.1731855 -32873.0209855 -255932.912253 -91735.2013031 -287210.885712 367866.627591 157540.403142 -51411.4203576 -190396.820805 217798.903459 184871.263151 -73311.1981659 309662.065006 -211942.146476 379322.692008 179301.764804 -13003.7173421 -299517.64086 435308.567937 -72742.5419829 188839.340923 -103663.857621 154058.699414 -15878.3018986 100451.924038 -44196.6588088 -5911.55864907 -305085.023809 -127034.130979 58261.4682051 7301.88700958 498586.675577 287590.505498 99716.6769406 -97760.6270147 12471.1204196 23103.4061692 260116.407593 93861.8950181 42563.9959864 34320.9563885 -202777.58647 202992.139041 145856.66089 -10631.9488284 -285859.604947 385071.086507 203036.56253 -59145.5990823 374755.041059 -199561.27514 296645.586935 217843.964133 -54839.0019603 -89014.835153 161230.58506 -49226.9681413 85849.3988924 -288109.275815 430448.799743 -40721.8852555 194765.80041 -295002.550275 -125953.718578 -59051.1140993 4431.12208284 499251.045961 289549.041169 62636.7864552 7539.60097846 8499.5929627 34787.8382107 105315.789479 -107806.436821 45896.9456954 32273.2019455 259036.496316 91747.9323356 -370877.538461 -162494.465145 305540.333979 65268.5883684 -218386.475309 -176837.517951 150981.863275 74896.6605811 -310824.112388 -378196.991187 -174101.805332 208510.580604 -180.043194261 -432419.312732 279612.241855 -186881.511377 64291.6594326 -139231.755486 81221.2542039 -96908.2328246 21145.6381125 37776.6594779 -1510.7574857 271490.844396 127377.279231 -60164.4289442 -12198.4294915 -505192.716929 -295850.704148 -100114.586558 99898.775554 -5234.11015527 -18218.9289413 -259373.261924 -86713.6307231 -36413.2169414 -35655.6880454 -203544.372416 -147029.671691 190556.668931 26247.6165684 -397672.195308 -192843.008183 266548.181563 56962.94312 -382965.342849 -294683.39307 -206579.376583 206717.38029 39682.1564661 -158590.072727 74280.8077037 -82233.8531662 42996.1858263 -432853.897083 289682.086942 -190774.143844 46856.0550134 341724.060256 106145.949323 4064.54840535 -1550.79600681 -507081.602203 -293219.622823 -62951.9833213 -7386.22535042 -2892.25660658 -21969.7248157 -99972.3008387 113797.336161 -47223.5436052 -24740.8031695 -253888.656936 -99734.8630266 372137.591099 154970.226241 -291097.943652 -56249.0440342 216937.601149 176272.354054 -172629.394494 -60919.0782119 315766.651101 378227.930882 169621.829314 -197345.350798 -1177.20343624 435148.331135 -307665.363506 188674.664962 -68000.1673939 141255.875996 -100168.403875 101647.177975 -27799.5640602 -40194.3302754 -3220.63111206 -286175.08413 -109387.529769 57959.9749431 12380.9512146 504293.283729 294351.171074 94916.5630959 -106970.681858 3838.76974785 26669.2070059 260528.256403 95382.6303298 39117.8321465 38533.5238839 197984.058528 145082.790183 -145039.881754 -12920.9176051 401934.277598 210010.820931 -316749.912871 -73923.3408453 373926.595879 299613.644957 222454.097569 -222064.111421 -69065.9788607 162681.418278 -92971.0491307 77846.096366 -37999.4878228 427691.195941 -295481.433842 198562.83857 -40631.0244688 -265966.093686 -118053.950134 -27606.5701698 6475.74867111 508917.297816 294973.520045 61799.7061068 6622.67771056 5094.45783882 16772.8842577 92395.0996788 -107515.875907 46348.5949718 33530.2313311 256223.23354 87281.4218001</DataArray>