<?xml version="1.0" ?>
<VTKFile byte_order="LittleEndian" type="PolyData" version="0.1">
  <PolyData>
    <Piece NumberOfPoints="416" NumberOfPolys="828">
      <Points>
        <DataArray NumberOfComponents="3" format="ascii" type="Float32">-1.92000001675e-07 0.0 -1.10000001996e-07 0.0 1.92000001675e-07 -1.10000001996e-07 1.92000001675e-07 0.0 -1.10000001996e-07 0.0 -1.92000001675e-07 -1.10000001996e-07 -2.41999998707e-07 0.0 -5.9999997859e-08 0.0 2.41999998707e-07 -5.9999997859e-08 2.41999998707e-07 0.0 -5.9999997859e-08 0.0 -2.41999998707e-07 -5.9999997859e-08 -2.41999998707e-07 0.0 5.9999997859e-08 0.0 2.41999998707e-07 5.9999997859e-08 2.41999998707e-07 0.0 5.9999997859e-08 0.0 -2.41999998707e-07 5.9999997859e-08 -1.92000001675e-07 0.0 1.10000001996e-07 0.0 1.92000001675e-07 1.10000001996e-07 1.92000001675e-07 0.0 1.10000001996e-07 0.0 -1.92000001675e-07 1.10000001996e-07 -1.87186159906e-07 4.27240181011e-08 -1.10000001996e-07 -1.72986020175e-07 8.33056787997e-08 -1.10000001996e-07 -1.5011164578e-07 1.19710037438e-07 -1.10000001996e-07 -1.19710037438e-07 1.5011164578e-07 -1.10000001996e-07 -8.33056787997e-08 1.72986020175e-07 -1.10000001996e-07 -4.27240181011e-08 1.87186159906e-07 -1.10000001996e-07 4.27240181011e-08 1.87186159906e-07 -1.10000001996e-07 8.33056787997e-08 1.72986020175e-07 -1.10000001996e-07 1.19710037438e-07 1.5011164578e-07 -1.10000001996e-07 1.5011164578e-07 1.19710037438e-07 -1.10000001996e-07 1.72986020175e-07 8.33056787997e-08 -1.10000001996e-07 1.87186159906e-07 4.27240181011e-08 -1.10000001996e-07 1.87186159906e-07 -4.27240181011e-08 -1.10000001996e-07 1.72986020175e-07 -8.33056787997e-08 -1.10000001996e-07 1.5011164578e-07 -1.19710037438e-07 -1.10000001996e-07 1.19710037438e-07 -1.5011164578e-07 -1.10000001996e-07 8.33056787997e-08 -1.72986020175e-07 -1.10000001996e-07 4.27240181011e-08 -1.87186159906e-07 -1.10000001996e-07 -4.27240181011e-08 -1.87186159906e-07 -1.10000001996e-07 -8.33056787997e-08 -1.72986020175e-07 -1.10000001996e-07 -1.19710037438e-07 -1.5011164578e-07 -1.10000001996e-07 -1.5011164578e-07 -1.19710037438e-07 -1.10000001996e-07 -1.72986020175e-07 -8.33056787997e-08 -1.10000001996e-07 -1.87186159906e-07 -4.27240181011e-08 -1.10000001996e-07 -2.37350036514e-07 4.72118593109e-08 -5.9999997859e-08 -2.23578851433e-07 9.26093903786e-08 -5.9999997859e-08 -2.01215641482e-07 1.34448001177e-07 -5.9999997859e-08 -1.71119836523e-07 1.71119836523e-07 -5.9999997859e-08 -1.34448001177e-07 2.01215641482e-07 -5.9999997859e-08 -9.26093903786e-08 2.23578851433e-07 -5.9999997859e-08 -4.72118593109e-08 2.37350036514e-07 -5.9999997859e-08 4.72118593109e-08 2.37350036514e-07 -5.9999997859e-08 9.26093903786e-08 2.23578851433e-07 -5.9999997859e-08 1.34448001177e-07 2.01215641482e-07 -5.9999997859e-08 1.71119836523e-07 1.71119836523e-07 -5.9999997859e-08 2.01215641482e-07 1.34448001177e-07 -5.9999997859e-08 2.23578851433e-07 9.26093903786e-08 -5.9999997859e-08 2.37350036514e-07 4.72118593109e-08 -5.9999997859e-08 2.37350036514e-07 -4.72118593109e-08 -5.9999997859e-08 2.23578851433e-07 -9.26093903786e-08 -5.9999997859e-08 2.01215641482e-07 -1.34448001177e-07 -5.9999997859e-08 1.71119836523e-07 -1.71119836523e-07 -5.9999997859e-08 1.34448001177e-07 -2.01215641482e-07 -5.9999997859e-08 9.26093903786e-08 -2.23578851433e-07 -5.9999997859e-08 4.72118593109e-08 -2.37350036514e-07 -5.9999997859e-08 -4.72118593109e-08 -2.37350036514e-07 -5.9999997859e-08 -9.26093903786e-08 -2.23578851433e-07 -5.9999997859e-08 -1.34448001177e-07 -2.01215641482e-07 -5.9999997859e-08 -1.71119836523e-07 -1.71119836523e-07 -5.9999997859e-08 -2.01215641482e-07 -1.34448001177e-07 -5.9999997859e-08 -2.23578851433e-07 -9.26093903786e-08 -5.9999997859e-08 -2.37350036514e-07 -4.72118593109e-08 -5.9999997859e-08 -2.37350036514e-07 4.72118593109e-08 5.9999997859e-08 -2.23578851433e-07 9.26093903786e-08 5.9999997859e-08 -2.01215641482e-07 1.34448001177e-07 5.9999997859e-08 -1.71119836523e-07 1.71119836523e-07 5.9999997859e-08 -1.34448001177e-07 2.01215641482e-07 5.9999997859e-08 -9.26093903786e-08 2.23578851433e-07 5.9999997859e-08 -4.72118593109e-08 2.37350036514e-07 5.9999997859e-08 4.72118593109e-08 2.37350036514e-07 5.9999997859e-08 9.26093903786e-08 2.23578851433e-07 5.9999997859e-08 1.34448001177e-07 2.01215641482e-07 5.9999997859e-08 1.71119836523e-07 1.71119836523e-07 5.9999997859e-08 2.01215641482e-07 1.34448001177e-07 5.9999997859e-08 2.23578851433e-07 9.26093903786e-08 5.9999997859e-08 2.37350036514e-07 4.72118593109e-08 5.9999997859e-08 2.37350036514e-07 -4.72118593109e-08 5.9999997859e-08 2.23578851433e-07 -9.26093903786e-08 5.9999997859e-08 2.01215641482e-07 -1.34448001177e-07 5.9999997859e-08 1.71119836523e-07 -1.71119836523e-07 5.9999997859e-08 1.34448001177e-07 -2.01215641482e-07 5.9999997859e-08 9.26093903786e-08 -2.23578851433e-07 5.9999997859e-08 4.72118593109e-08 -2.37350036514e-07 5.9999997859e-08 -4.72118593109e-08 -2.37350036514e-07 5.9999997859e-08 -9.26093903786e-08 -2.23578851433e-07 5.9999997859e-08 -1.34448001177e-07 -2.01215641482e-07 5.9999997859e-08 -1.71119836523e-07 -1.71119836523e-07 5.9999997859e-08 -2.01215641482e-07 -1.34448001177e-07 5.9999997859e-08 -2.23578851433e-07 -9.26093903786e-08 5.9999997859e-08 -2.37350036514e-07 -4.72118593109e-08 5.9999997859e-08 -1.87186159906e-07 4.27240181011e-08 1.10000001996e-07 -1.72986020175e-07 8.33056787997e-08 1.10000001996e-07 -1.5011164578e-07 1.19710037438e-07 1.10000001996e-07 -1.19710037438e-07 1.5011164578e-07 1.10000001996e-07 -8.33056787997e-08 1.72986020175e-07 1.10000001996e-07 -4.27240181011e-08 1.87186159906e-07 1.10000001996e-07 4.27240181011e-08 1.87186159906e-07 1.10000001996e-07 8.33056787997e-08 1.72986020175e-07 1.10000001996e-07 1.19710037438e-07 1.5011164578e-07 1.10000001996e-07 1.5011164578e-07 1.19710037438e-07 1.10000001996e-07 1.72986020175e-07 8.33056787997e-08 1.10000001996e-07 1.87186159906e-07 4.27240181011e-08 1.10000001996e-07 1.87186159906e-07 -4.27240181011e-08 1.10000001996e-07 1.72986020175e-07 -8.33056787997e-08 1.10000001996e-07 1.5011164578e-07 -1.19710037438e-07 1.10000001996e-07 1.19710037438e-07 -1.5011164578e-07 1.10000001996e-07 8.33056787997e-08 -1.72986020175e-07 1.10000001996e-07 4.27240181011e-08 -1.87186159906e-07 1.10000001996e-07 -4.27240181011e-08 -1.87186159906e-07 1.10000001996e-07 -8.33056787997e-08 -1.72986020175e-07 1.10000001996e-07 -1.19710037438e-07 -1.5011164578e-07 1.10000001996e-07 -1.5011164578e-07 -1.19710037438e-07 1.10000001996e-07 -1.72986020175e-07 -8.33056787997e-08 1.10000001996e-07 -1.87186159906e-07 -4.27240181011e-08 1.10000001996e-07 -2.27355343441e-07 0.0 -9.53553396243e-08 0.0 2.27355343441e-07 -9.53553396243e-08 2.27355343441e-07 0.0 -9.53553396243e-08 0.0 -2.27355343441e-07 -9.53553396243e-08 -2.27355343441e-07 0.0 9.53553396243e-08 0.0 2.27355343441e-07 9.53553396243e-08 2.27355343441e-07 0.0 9.53553396243e-08 0.0 -2.27355343441e-07 9.53553396243e-08 -2.41999998707e-07 0.0 -1.99999998785e-08 -2.41999998707e-07 0.0 1.99999998785e-08 0.0 2.41999998707e-07 -1.99999998785e-08 0.0 2.41999998707e-07 1.99999998785e-08 2.41999998707e-07 0.0 -1.99999998785e-08 2.41999998707e-07 0.0 1.99999998785e-08 0.0 -2.41999998707e-07 -1.99999998785e-08 0.0 -2.41999998707e-07 1.99999998785e-08 4.26537312137e-08 -1.26742323303e-08 -1.10000001996e-07 -3.13025090293e-08 5.22174747886e-09 -1.10000001996e-07 4.51158186365e-08 -1.21074222648e-07 -1.10000001996e-07 1.10048581803e-07 -5.68393190292e-08 -1.10000001996e-07 1.43824109955e-07 -1.60426356643e-08 -1.10000001996e-07 -1.03375548122e-07 -5.00856067731e-08 -1.10000001996e-07 1.07740646627e-07 4.86373323838e-08 -1.10000001996e-07 -6.44505817604e-08 9.20432086104e-08 -1.10000001996e-07 -1.9646448024e-08 -1.5119783825e-07 -1.10000001996e-07 -3.1094391062e-08 7.53365867467e-08 -1.10000001996e-07 8.99713938907e-08 -1.17641869579e-08 -1.10000001996e-07 2.54627998686e-08 -8.53002433132e-08 -1.10000001996e-07 -1.47819122276e-07 4.56858266773e-08 -1.10000001996e-07 6.87775383312e-08 -8.28844619605e-08 -1.10000001996e-07 1.14432793907e-07 -1.05964886643e-07 -1.10000001996e-07 1.83192909731e-08 -1.56162911935e-07 -1.10000001996e-07 -1.4522946401e-07 -7.10712910745e-08 -1.10000001996e-07 8.43416003704e-08 -1.31638913103e-07 -1.10000001996e-07 1.50971104063e-07 -5.55669501523e-08 -1.10000001996e-07 1.4006778315e-07 -8.46402983257e-08 -1.10000001996e-07 2.77657701275e-08 5.83680659361e-08 -1.10000001996e-07 -1.13841025495e-08 3.95316241963e-08 -1.10000001996e-07 -2.5527844727e-08 -3.6663028169e-08 -1.10000001996e-07 6.75717046761e-08 7.15373289495e-08 -1.10000001996e-07 6.76825635537e-08 2.88133108484e-08 -1.10000001996e-07 -5.4850197273e-08 -1.45941115193e-07 -1.10000001996e-07 -1.03979658661e-07 -9.853016536e-08 -1.10000001996e-07 5.08402244748e-08 1.40922693959e-07 -1.10000001996e-07 -5.83726880166e-08 -6.62671695295e-08 -1.10000001996e-07 -6.30533278922e-08 -2.61693529069e-08 -1.10000001996e-07 -1.09679717752e-07 9.96423494826e-08 -1.10000001996e-07 1.65985492018e-09 -4.21536716644e-09 -1.10000001996e-07 1.12365846405e-07 1.66997846662e-08 -1.10000001996e-07 1.18717061071e-07 8.21581735977e-08 -1.10000001996e-07 -1.88047906136e-08 -8.31586604022e-08 -1.10000001996e-07 -5.26660990374e-08 4.33633786656e-08 -1.10000001996e-07 -1.03003756635e-07 5.24155083781e-08 -1.10000001996e-07 4.8536299424e-09 -1.21464765357e-07 -1.10000001996e-07 4.18306811412e-08 -5.10556930067e-08 -1.10000001996e-07 -1.21814863974e-07 1.17724860971e-08 -1.10000001996e-07 -3.6725666952e-09 8.8919811958e-08 -1.10000001996e-07 -4.74581760557e-08 1.39963418633e-07 -1.10000001996e-07 -1.36349299851e-07 -2.71714615252e-08 -1.10000001996e-07 5.47612835078e-08 -1.53809651238e-07 -1.10000001996e-07 -7.69369847831e-08 1.16851452958e-08 -1.10000001996e-07 -1.00933576164e-07 -1.63342157578e-08 -1.10000001996e-07 -1.83009685184e-09 1.28936505916e-07 -1.10000001996e-07 -1.37070188089e-07 7.94280978766e-08 -1.10000001996e-07 -8.52412256336e-08 1.30480003691e-07 -1.10000001996e-07 3.14172901028e-08 9
[...]
      <CellData>
        <DataArray Name="rho_e_real" format="ascii" type="Float32">47481.4213863 -72498.8789767 -37356.0973315 47401.2739159 -52078.0878649 6497.75503925 -65947.3704541 39446.839261 -33185.8966193 8112.50640295 -45632.7698732 66886.6882609 27445.194952 -28969.9192569 -6368.38938586 11395.4468488 -30147.7701777 -63460.1921142 60468.9327107 17833.7873128 -29643.6518934 40.2616466295 -63176.4699758 -79001.6577127 -4816.50518492 43929.4427934 54032.2703494 26003.580749 19777.5948197 -81324.9295142 -88730.4759871 43399.0265515 40241.1865423 52044.3993466 -8923.1970469 8391.18748878 -13044.6488576 72498.9933531 80763.3419889 -22836.5973108 -456.916074572 -75531.3252915 -62368.0899721 18407.6474557 -4587.79481481 75208.8583762 60911.2242901 88114.0645706 62003.9572081 28362.5178753 -8360.53318934 6237.71284265 21163.0773125 -41625.6720616 -36848.8885083 63270.1376817 -17392.0700706 42414.4833258 -62596.9662638 -86.7136900336 -9958.03859715 -17991.860375 -2369.62818393 67093.1749506 49872.7748468 -79543.1133065 66884.8657845 80856.1986302 -11404.5654752 42923.565754 40922.5545996 -6668.74877556 -14531.0135287 51485.0690917 5957.88342383 13191.7420793 10353.5271998 -40112.3339476 -6395.65328348 2286.87507635 -7633.49820429 -18445.8032405 -34302.8898982 6763.71480771 11976.2223177 47728.3103151 -62761.6079713 -53296.8171631 22156.8609804 -26781.5969405 18355.0223311 30783.3093831 20084.6566965 54586.7821733 -2017.06075507 -63898.0002269 -56546.5256612 -42483.4761723 -18747.0775954 -44456.2463928 40275.7327182 41039.2813851 11181.0985646 26674.4464332 54287.1923685 -60765.8622398 -661.103243043 -39467.762313 -572.114314884 -3692.97651638 37211.6424056 26645.6487215 29504.1904154 34953.906319 87506.3917384 83398.4784629 -51952.8618675 -32006.9113506 -63813.1663684 -4920.98217694 -45919.8123164 -78534.5472973 -64745.532255 6797.43656669 -27110.2760947 -43620.9947549 -7211.93122692 14100.0914794 -32342.2279409 52941.0519017 75706.2398717 75687.1625792 -81400.0781218 -69991.9370898 -63906.9380491 42311.1755004 8915.27643712 -21367.9264845 52887.0577944 39570.9535903 -63642.5432688 -20685.2378171 -68175.2236639 -6750.75454402 -210.098939227 -5611.35588074 6568.35904024 842.994921398 853.66930265 6990.14159088 -6569.41678913 -574.877900559 8073.08211976 22212.7586119 45968.3400298 1961.5034129 58974.7779484 1305.61939161 52920.7326931 29725.5067185 1369.84458834 7108.40038956 13800.458956 27478.5074445 -24142.6064446 -2278.15301157 11237.9651762 57986.6080945 -20100.1576464 23386.5358908 77782.3909478 -60676.4404825 -38755.8104415 19848.7760708 -19198.9701651 -60424.9650668 -75701.2896109 -64475.3894989 -34792.3114831 71517.0106337 41762.3676258 30938.3325206 63484.466729 68642.187495 86135.9841541 67464.7335357 45765.691646 12010.7149455 61639.4333644 16469.574045 -498.904057831 -11312.4664388 -67106.3491664 -46879.647456 -78017.0372996 75129.8946817 -59854.991713 -46760.5332903 -13917.3563325 -16148.250752 -6705.44541489 -67447.6416999 -75082.1308596 -52337.5823198 -71288.2865771 -34185.7335656 49482.6718842 48166.7159233 33387.2089632 20700.4694258 64877.5358006 57960.1485582 -40027.9723826 -22315.1383537 3072.38511193 -33124.6215554 -12310.9528955 34898.6007423 15359.6554881 88226.5476819 83683.3376298 -82154.0892211 -87988.8636167 60738.2633241 -50679.8801224 62035.7703009 75232.7646821 39992.6949247 -48205.9911767 50062.3398126 60358.2032982 553.797141766 -57216.6880003 -25721.8516746 50837.9523854 -20587.5747253 16131.8088825 31811.8012002 84022.5209812 77233.6608485 -34074.5120821 -16243.3818539 -6192.89526622 -33679.0485092 -32877.0617665 -38071.9518164 69048.3929865 -35238.1091155 -41437.6991761 14074.5614702 -42114.3984966 -52775.0721219 -71835.4300034 -61676.5428177 -20494.4496635 -57299.2490965 7561.41212584 26055.6360831 32994.0719891 1567.47268873 14405.9590501 16574.9672398 -43820.5640642 -9520.92707818 -40766.0833001 -7426.70070692 -42483.8537164 -15448.0973687 -19615.8696722 -6243.37932802 -2164.84782482 -4831.96477487 1445.24677264 -3961.81725074 25533.9884307 15218.2987286 9013.34357566 56363.1472219 66418.8483417 36174.7536302 50143.0182597 23490.1214508 60699.5791416 13749.8990498 -41652.1018421 67994.386804 21023.8023725 -35115.1944514 -55729.7407735 3002.39106955 9109.62802859 -81401.6972066 -85531.3266396 -66460.069141 -19927.6878738 -15612.854237 25921.8794852 4654.5989676 38135.4711274 13312.019962 -340093.818139 -301995.245383 -97236.8826775 -97618.3118807 -334493.979271 -271508.152074 -336171.805519 -267957.852501 -300067.266078 -354285.183263 -281360.169377 -289495.369924 -243008.357181 -287990.98955 -238477.635691 -244407.097545 -246516.366421 -281759.823119 -254191.749002 -289863.189689 -256190.506413 -311769.432027 -284222.217364 -236243.649525 -218703.447636 -237772.150125 -219869.869166 -295297.216475 -11851.463256 -168144.576919 -167705.069094 -166799.324707 -170499.855501 -117680.63666 -36767.0329198 -25008.6997915 -8357.56577344 -364240.540793 -333321.132711 -36857.3816097 -25091.8625766 -9409.36854254 -62906.1129225 -47275.522259 -62830.8200773 -47085.6167334 -302730.899713 -302817.095366 -330271.092035 -215229.347121 -165579.052692 -63202.6896826 -89113.3269626 -115752.775344 -367740.804628 -301292.147657 -344744.024299 -340794.018061 110232.632388 65922.1615018 355644.380909 357347.013254 171551.563938 128880.947714 181485.317976 131556.787186 127475.795939 101736.751817 74414.639291 231370.793507 179905.154269 230541.607918 177735.111023 286267.825148 288118.838572 182904.006988 152564.855755 192697.208842 160123.455718 122843.606959 104060.872419 229661.163666 196527.410396 231904.230349 198879.384021 13143.3728499 301341.092371 319449.384387 254089.559705 317436.376514 258017.477363 289971.876902 364340.024854 302345.310262 332237.595466 38142.8444982 8953.14774413 364528.920056 302024.558109 335015.367458 331105.059255 297180.939548 331322.61908 297522.523171 29139.4618981 50571.8373214 64180.5909124 222912.265428 217517.487078 305990.366033 261508.662163 284669.189887 30950.1220041 26470.6234073 6236.08937989 45900.0779292 340343.188989 302265.01284 97195.4749434 97587.2630647 335153.57381 271896.942943 336280.310601 268207.940013 300272.144774 354901.330091 281674.980286 289852.384482 243296.400237 288046.49989 238683.713558 244447.236713 246536.081966 282267.428915 254593.879886 289941.125085 256392.51723 312381.255832 284646.05774 236393.908971 218912.687619 237853.081788 220019.078603 295440.384822 11848.5965964 168218.820089 167743.151118 166726.28869 170469.183143 117602.751012 36706.4258284 24958.2065983 8335.78620227 364538.035247 333455.022545 36910.2651439 25077.9718671 9466.65938344 62923.1317346 47275.4526533 62771.1262729 47065.3548779 302909.46792 303128.772103 330711.500489 215375.481242 165650.570251 63172.228339 89105.3519094 115735.166795 367991.674969 301474.100981 344912.530267 341033.025725 -110232.770156 -65932.0142896 -355747.675527 -357523.675089 -171914.124186 -129072.87684 -181641.293047 -131710.705372 -127618.294774 -101863.901342 -74483.9166168 -231707.270015 -180181.576585 -230960.188105 -178024.697801 -286459.796205 -288730.251173 -183230.59274 -152846.827295 -192931.547393 -160348.02519 -123074.184141 -104224.321398 -229905.001181 -196821.021361 -232384.925636 -199217.46468 -13180.3011415 -301299.499385 -319925.939127 -254513.358247 -317517.316683 -258186.398771 -290128.989536 -364285.628632 -302308.063807 -332120.027268 -38073.5038365 -8918.25693141 -364559.993287 -302036.290262 -334987.394168 -331206.1055 -297258.568536 -331369.474347 -297577.837085 -29122.3115778 -50627.9943103 -64177.5374782 -223249.053401 -217823.03196 -306102.252757 -261684.893011 -284930.507872 -30922.1535347 -26481.9854706 -6263.06071947 -45874.5787518 -99952.430915 -171052.251653 -206221.725096 -165353.077683 -174746.907107 -316532.57419 -326551.424134 -216643.520244 -296249.910301 -148349.902791 -237354.601921 -275996.40085 -200513.959853 -59715.8823617 -103821.993087 -105603.024044 -138210.626591 -190299.757066 -352171.721739 -258411.129561 -358647.241342 -191513.819638 -251902.83133 -23476.1677494 -210.763891802 -401172.929516 -383442.577099 -41028.8816795 -12226.8301659 -33883.5500977 -70067.1934811 -397813.337523 -251774.74929 -76354.3506628 -66282.1623283 -388261.016022 -380774.193671 181457.874137 327609.613182 309090.504482 221576.233788 93848.5016701 164714.430439 213370.124417 156384.011214 242289.943472 154366.813711 287939.938882 274003.287808 178393.228946 193072.311519 355823.370421 259471.037965 354695.941345 56957.4795045 103170.883409 106584.392059 139110.747637 24340.7456029 455.770930128 196588.558071 255002.079966 41029.2502492 12198.3090012 401303.46155 383464.256681 397174.037469 250440.88751 33872.1147204 70680.7640939 387694.475142 381483.531792 76345.849335 66051.0518504 97038.1490091 170944.505705 205993.899289 165139.828746 176817.655447 317426.496602 327538.944107 218767.708296 296637.211145 146486.816067 237333.848617 276149.668589 200525.684913 56152.6591297 103831.251074 104906.705565 138199.61323 191148.222962 352983.571848 259757.835974 359976.880952 198967.326515 255251.472951 22649.0454846 232.437879232 401553.882488 383572.96176 41090.8407099 12337.2439128 33903.6977293 71866.7075096 397539.714871 253342.067828 76633.5774901 66623.874395 389126.232593 381597.338137 -171453.333601 -327525.318677 -308989.48447 -221032.495399 -98059.0845065 -165329.356173 -213763.014972 -158251.394722 -242757.645523 -156065.157558 -288052.524256 -273922.930359 -179386.125309 -192931.836956 -355752.181891 -256850.950754 -355011.120182 -58091.8346944 -103374.516936 -108139.148099 -139787.659043 -22110.8883146 584.1377387 -193546.704977 -251494.674333 -40933.2167282 -12061.8008569 -401274.803175 -383442.726 -397908.34019 -253517.706061 -33766.4123647 -70396.0508582 -387547.026409 -380414.485802 -76279.3745237 -65770.469627 -170991.009949 -206661.583212 -98342.1782015 -165852.595339 -316737.270839 -326565.274074 -181487.086149 -218311.47068 -296211.611197 -237514.372471 -276128.251432 -151341.058257 -201545.809707 -103732.566592 -59085.7283659 -138315.165044 -105506.457605 -359151.012022 -192986.819635 -358428.138137 -259059.847396 -196076.006512 -253757.161815 -24064.7004852 580.274233029 -402064.347578 -382818.762989 -40903.0153868 -12265.9110502 -33748.2772522 -71068.865846 -397433.221039 -252046.35347 -76175.3238112 -65927.6649536 -388894.04489 -380178.902369 326985.131846 308757.01765 170391.362906 220413.098713 164736.856224 213506.215876 102395.76083 159386.465384 241955.201457 287388.590233 273557.473996 153742.080993 179535.572593 355262.843055 190050.880467 354538.372527 255516.116661 105321.340964 59587.6408611 139779.169136 107406.46896 20544.5065507 -1206.49648228 197534.233727 254825.603447 40990.4984702 11848.5897555 400934.318714 383252.176818 397446.073126 252484.836403 33491.1768348 70325.6387498 387282.241246 380560.170178 76990.7301298 66429.9630155 171075.936921 206246.757251 99405.9828481 165466.970448 316759.436948 326691.815966 175547.325583 217323.773306 296377.029535 237419.144306 276358.833255 149819.551777 201681.326497 103661.926182 56705.949402 138344.284597 104916.618566 359737.970058 190221.014334 359165.94272 259701.804609 195183.791098 254279.650596 20088.5735256 -1270.93646717 402321.73414 383083.360396 40809.6473407 12205.3339402 33533.1968287 69973.7561797 397516.016873 251936.178538 76109.9926793 65731.2564582 389522.033242 380992.197888 -327415.748242 -309473.180601 -176681.386692 -220724.965214 -164914.685297 -213862.63125 -96540.9735878 -157810.448309 -242367.026712 -288319.257273 -274686.663346 -156406.631298 -181043.42671 -355560.314728 -188055.140059 -354579.621641 -257192.028037 -105214.915324 -57528.3453148 -140239.532007 -108808.758518 -21928.0539022 636.22614705 -194345.945152 -253931.347247 -40956.9808781 -11851.2567259 -400856.46735 -383061.669981 -397229.957652 -251464.088362 -33671.3056987 -71040.3177482 -387404.74598 -380843.869496 -76738.7752883 -65903.7441849</DataArray>