<?xml version="1.0" ?>
<VTKFile byte_order="LittleEndian" type="PolyData" version="0.1">
  <PolyData>
    <Piece NumberOfPoints="416" NumberOfPolys="828">
      <Points>
        <DataArray NumberOfComponents="3" format="ascii" type="Float32">-1.92000001675e-07 0.0 -1.10000001996e-07 0.0 1.92000001675e-07 -1.10000001996e-07 1.92000001675e-07 0.0 -1.10000001996e-07 0.0 -1.92000001675e-07 -1.10000001996e-07 -2.41999998707e-07 0.0 -5.9999997859e-08 0.0 2.41999998707e-07 -5.9999997859e-08 2.41999998707e-07 0.0 -5.9999997859e-08 0.0 -2.41999998707e-07 -5.9999997859e-08 -2.41999998707e-07 0.0 5.9999997859e-08 0.0 2.41999998707e-07 5.9999997859e-08 2.41999998707e-07 0.0 5.9999997859e-08 0.0 -2.41999998707e-07 5.9999997859e-08 -1.92000001675e-07 0.0 1.10000001996e-07 0.0 1.92000001675e-07 1.10000001996e-07 1.92000001675e-07 0.0 1.10000001996e-07 0.0 -1.92000001675e-07 1.10000001996e-07 -1.87186159906e-07 4.27240181011e-08 -1.10000001996e-07 -1.72986020175e-07 8.33056787997e-08 -1.10000001996e-07 -1.5011164578e-07 1.19710037438e-07 -1.10000001996e-07 -1.19710037438e-07 1.5011164578e-07 -1.10000001996e-07 -8.33056787997e-08 1.72986020175e-07 -1.10000001996e-07 -4.27240181011e-08 1.87186159906e-07 -1.10000001996e-07 4.27240181011e-08 1.87186159906e-07 -1.10000001996e-07 8.33056787997e-08 1.72986020175e-07 -1.10000001996e-07 1.19710037438e-07 1.5011164578e-07 -1.10000001996e-07 1.5011164578e-07 1.19710037438e-07 -1.10000001996e-07 1.72986020175e-07 8.33056787997e-08 -1.10000001996e-07 1.87186159906e-07 4.27240181011e-08 -1.10000001996e-07 1.87186159906e-07 -4.27240181011e-08 -1.10000001996e-07 1.72986020175e-07 -8.33056787997e-08 -1.10000001996e-07 1.5011164578e-07 -1.19710037438e-07 -1.10000001996e-07 1.19710037438e-07 -1.5011164578e-07 -1.10000001996e-07 8.33056787997e-08 -1.72986020175e-07 -1.10000001996e-07 4.27240181011e-08 -1.87186159906e-07 -1.10000001996e-07 -4.27240181011e-08 -1.87186159906e-07 -1.10000001996e-07 -8.33056787997e-08 -1.72986020175e-07 -1.10000001996e-07 -1.19710037438e-07 -1.5011164578e-07 -1.10000001996e-07 -1.5011164578e-07 -1.19710037438e-07 -1.10000001996e-07 -1.72986020175e-07 -8.33056787997e-08 -1.10000001996e-07 -1.87186159906e-07 -4.27240181011e-08 -1.10000001996e-07 -2.37350036514e-07 4.72118593109e-08 -5.9999997859e-08 -2.23578851433e-07 9.26093903786e-08 -5.9999997859e-08 -2.01215641482e-07 1.34448001177e-07 -5.9999997859e-08 -1.71119836523e-07 1.71119836523e-07 -5.9999997859e-08 -1.34448001177e-07 2.01215641482e-07 -5.9999997859e-08 -9.26093903786e-08 2.23578851433e-07 -5.9999997859e-08 -4.72118593109e-08 2.37350036514e-07 -5.9999997859e-08 4.72118593109e-08 2.37350036514e-07 -5.9999997859e-08 9.26093903786e-08 2.23578851433e-07 -5.9999997859e-08 1.34448001177e-07 2.01215641482e-07 -5.9999997859e-08 1.71119836523e-07 1.71119836523e-07 -5.9999997859e-08 2.01215641482e-07 1.34448001177e-07 -5.9999997859e-08 2.23578851433e-07 9.26093903786e-08 -5.9999997859e-08 2.37350036514e-07 4.72118593109e-08 -5.9999997859e-08 2.37350036514e-07 -4.72118593109e-08 -5.9999997859e-08 2.23578851433e-07 -9.26093903786e-08 -5.9999997859e-08 2.01215641482e-07 -1.34448001177e-07 -5.9999997859e-08 1.71119836523e-07 -1.71119836523e-07 -5.9999997859e-08 1.34448001177e-07 -2.01215641482e-07 -5.9999997859e-08 9.26093903786e-08 -2.23578851433e-07 -5.9999997859e-08 4.72118593109e-08 -2.37350036514e-07 -5.9999997859e-08 -4.72118593109e-08 -2.37350036514e-07 -5.9999997859e-08 -9.26093903786e-08 -2.23578851433e-07 -5.9999997859e-08 -1.34448001177e-07 -2.01215641482e-07 -5.9999997859e-08 -1.71119836523e-07 -1.71119836523e-07 -5.9999997859e-08 -2.01215641482e-07 -1.34448001177e-07 -5.9999997859e-08 -2.23578851433e-07 -9.26093903786e-08 -5.9999997859e-08 -2.37350036514e-07 -4.72118593109e-08 -5.9999997859e-08 -2.37350036514e-07 4.72118593109e-08 5.9999997859e-08 -2.23578851433e-07 9.26093903786e-08 5.9999997859e-08 -2.01215641482e-07 1.34448001177e-07 5.9999997859e-08 -1.71119836523e-07 1.71119836523e-07 5.9999997859e-08 -1.34448001177e-07 2.01215641482e-07 5.9999997859e-08 -9.26093903786e-08 2.23578851433e-07 5.9999997859e-08 -4.72118593109e-08 2.37350036514e-07 5.9999997859e-08 4.72118593109e-08 2.37350036514e-07 5.9999997859e-08 9.26093903786e-08 2.23578851433e-07 5.9999997859e-08 1.34448001177e-07 2.01215641482e-07 5.9999997859e-08 1.71119836523e-07 1.71119836523e-07 5.9999997859e-08 2.01215641482e-07 1.34448001177e-07 5.9999997859e-08 2.23578851433e-07 9.26093903786e-08 5.9999997859e-08 2.37350036514e-07 4.72118593109e-08 5.9999997859e-08 2.37350036514e-07 -4.72118593109e-08 5.9999997859e-08 2.23578851433e-07 -9.26093903786e-08 5.9999997859e-08 2.01215641482e-07 -1.34448001177e-07 5.9999997859e-08 1.71119836523e-07 -1.71119836523e-07 5.9999997859e-08 1.34448001177e-07 -2.01215641482e-07 5.9999997859e-08 9.26093903786e-08 -2.23578851433e-07 5.9999997859e-08 4.72118593109e-08 -2.37350036514e-07 5.9999997859e-08 -4.72118593109e-08 -2.37350036514e-07 5.9999997859e-08 -9.26093903786e-08 -2.23578851433e-07 5.9999997859e-08 -1.34448001177e-07 -2.01215641482e-07 5.9999997859e-08 -1.71119836523e-07 -1.71119836523e-07 5.9999997859e-08 -2.01215641482e-07 -1.34448001177e-07 5.9999997859e-08 -2.23578851433e-07 -9.26093903786e-08 5.9999997859e-08 -2.37350036514e-07 -4.72118593109e-08 5.9999997859e-08 -1.87186159906e-07 4.27240181011e-08 1.10000001996e-07 -1.72986020175e-07 8.33056787997e-08 1.10000001996e-07 -1.5011164578e-07 1.19710037438e-07 1.10000001996e-07 -1.19710037438e-07 1.5011164578e-07 1.10000001996e-07 -8.33056787997e-08 1.72986020175e-07 1.10000001996e-07 -4.27240181011e-08 1.87186159906e-07 1.10000001996e-07 4.27240181011e-08 1.87186159906e-07 1.10000001996e-07 8.33056787997e-08 1.72986020175e-07 1.10000001996e-07 1.19710037438e-07 1.5011164578e-07 1.10000001996e-07 1.5011164578e-07 1.19710037438e-07 1.10000001996e-07 1.72986020175e-07 8.33056787997e-08 1.10000001996e-07 1.87186159906e-07 4.27240181011e-08 1.10000001996e-07 1.87186159906e-07 -4.27240181011e-08 1.10000001996e-07 1.72986020175e-07 -8.33056787997e-08 1.10000001996e-07 1.5011164578e-07 -1.19710037438e-07 1.10000001996e-07 1.19710037438e-07 -1.5011164578e-07 1.10000001996e-07 8.33056787997e-08 -1.72986020175e-07 1.10000001996e-07 4.27240181011e-08 -1.87186159906e-07 1.10000001996e-07 -4.27240181011e-08 -1.87186159906e-07 1.10000001996e-07 -8.33056787997e-08 -1.72986020175e-07 1.10000001996e-07 -1.19710037438e-07 -1.5011164578e-07 1.10000001996e-07 -1.5011164578e-07 -1.19710037438e-07 1.10000001996e-07 -1.72986020175e-07 -8.33056787997e-08 1.10000001996e-07 -1.87186159906e-07 -4.27240181011e-08 1.10000001996e-07 -2.27355343441e-07 0.0 -9.53553396243e-08 0.0 2.27355343441e-07 -9.53553396243e-08 2.27355343441e-07 0.0 -9.53553396243e-08 0.0 -2.27355343441e-07 -9.53553396243e-08 -2.27355343441e-07 0.0 9.53553396243e-08 0.0 2.27355343441e-07 9.53553396243e-08 2.27355343441e-07 0.0 9.53553396243e-08 0.0 -2.27355343441e-07 9.53553396243e-08 -2.41999998707e-07 0.0 -1.99999998785e-08 -2.41999998707e-07 0.0 1.99999998785e-08 0.0 2.41999998707e-07 -1.99999998785e-08 0.0 2.41999998707e-07 1.99999998785e-08 2.41999998707e-07 0.0 -1.99999998785e-08 2.41999998707e-07 0.0 1.99999998785e-08 0.0 -2.41999998707e-07 -1.99999998785e-08 0.0 -2.41999998707e-07 1.99999998785e-08 4.26537312137e-08 -1.26742323303e-08 -1.10000001996e-07 -3.13025090293e-08 5.22174747886e-09 -1.10000001996e-07 4.51158186365e-08 -1.21074222648e-07 -1.10000001996e-07 1.10048581803e-07 -5.68393190292e-08 -1.10000001996e-07 1.43824109955e-07 -1.60426356643e-08 -1.10000001996e-07 -1.03375548122e-07 -5.00856067731e-08 -1.10000001996e-07 1.07740646627e-07 4.86373323838e-08 -1.10000001996e-07 -6.44505817604e-08 9.20432086104e-08 -1.10000001996e-07 -1.9646448024e-08 -1.5119783825e-07 -1.10000001996e-07 -3.1094391062e-08 7.53365867467e-08 -1.10000001996e-07 8.99713938907e-08 -1.17641869579e-08 -1.10000001996e-07 2.54627998686e-08 -8.53002433132e-08 -1.10000001996e-07 -1.47819122276e-07 4.56858266773e-08 -1.10000001996e-07 6.87775383312e-08 -8.28844619605e-08 -1.10000001996e-07 1.14432793907e-07 -1.05964886643e-07 -1.10000001996e-07 1.83192909731e-08 -1.56162911935e-07 -1.10000001996e-07 -1.4522946401e-07 -7.10712910745e-08 -1.10000001996e-07 8.43416003704e-08 -1.31638913103e-07 -1.10000001996e-07 1.50971104063e-07 -5.55669501523e-08 -1.10000001996e-07 1.4006778315e-07 -8.46402983257e-08 -1.10000001996e-07 2.77657701275e-08 5.83680659361e-08 -1.10000001996e-07 -1.13841025495e-08 3.95316241963e-08 -1.10000001996e-07 -2.5527844727e-08 -3.6663028169e-08 -1.10000001996e-07 6.75717046761e-08 7.15373289495e-08 -1.10000001996e-07 6.76825635537e-08 2.88133108484e-08 -1.10000001996e-07 -5.4850197273e-08 -1.45941115193e-07 -1.10000001996e-07 -1.03979658661e-07 -9.853016536e-08 -1.10000001996e-07 5.08402244748e-08 1.40922693959e-07 -1.10000001996e-07 -5.83726880166e-08 -6.62671695295e-08 -1.10000001996e-07 -6.30533278922e-08 -2.61693529069e-08 -1.10000001996e-07 -1.09679717752e-07 9.96423494826e-08 -1.10000001996e-07 1.65985492018e-09 -4.21536716644e-09 -1.10000001996e-07 1.12365846405e-07 1.66997846662e-08 -1.10000001996e-07 1.18717061071e-07 8.21581735977e-08 -1.10000001996e-07 -1.88047906136e-08 -8.31586604022e-08 -1.10000001996e-07 -5.26660990374e-08 4.33633786656e-08 -1.10000001996e-07 -1.03003756635e-07 5.24155083781e-08 -1.10000001996e-07 4.8536299424e-09 -1.21464765357e-07 -1.10000001996e-07 4.18306811412e-08 -5.10556930067e-08 -1.10000001996e-07 -1.21814863974e-07 1.17724860971e-08 -1.10000001996e-07 -3.6725666952e-09 8.8919811958e-08 -1.10000001996e-07 -4.74581760557e-08 1.39963418633e-07 -1.10000001996e-07 -1.36349299851e-07 -2.71714615252e-08 -1.10000001996e-07 5.47612835078e-08 -1.53809651238e-07 -1.10000001996e-07 -7.69369847831e-08 1.16851452958e-08 -1.10000001996e-07 -1.00933576164e-07 -1.63342157578e-08 -1.10000001996e-07 -1.83009685184e-09 1.28936505916e-07 -1.10000001996e-07 -1.37070188089e-07 7.94280978766e-08 -1.10000001996e-07 -8.52412256336e-08 1.30480003691e-07 -1.10000001996e-07 3.14172901028e-08 9
[...]
      <CellData>
        <DataArray Name="rho_m_real" format="ascii" type="Float32">-2907.74795794 31353.3067224 210109.733782 -16009.6907446 82571.8450575 -24014.9134058 -15823.4551342 -12570.9265286 91882.9597978 -10063.6788428 13373.3416279 -9267.21702425 -17154.0210611 17558.3319944 -18286.0538455 -28085.3720681 42545.9308021 6123.34674789 -16114.4826732 -29322.0626418 -5033.2519566 -28396.3685774 -8104.59286131 -3954.80301217 -7725.53106647 11719.271146 129186.440463 81503.8003907 -100719.550067 -78418.912212 -51366.122183 -206736.372139 -298531.037304 -83195.5416602 -11136.6570613 -29230.2628758 9926.53966712 15489.6160039 82285.5963479 -12158.4716306 -19266.414501 -139655.282547 -235529.565543 -312694.356867 -321990.076697 164997.337784 230669.31258 47339.3937756 -31919.735361 -21862.4096256 9427.95463635 -26361.1389823 2930.85740038 6389.89056941 -21.4711361608 120038.349546 666.934122081 -146.368271314 -91799.5783173 32798.2737613 77682.3136155 191804.382592 279315.213095 -114253.131886 -252456.153249 13882.6571229 -170328.081899 -135846.865967 14965.4510825 -13389.7614727 -26054.5277934 -244860.014629 -119185.628765 26078.937436 9903.13543658 -99292.0103979 -228183.664355 -24304.5662493 -14391.1295287 -11620.1494517 -142170.513743 -290495.249299 -16277.2549995 94769.3318915 19379.8840871 128669.93001 -73419.2433472 -226767.875803 84438.1295401 -113972.526149 29691.8160114 25361.2066872 -305091.582125 -1002.77933354 6989.69237323 -27899.5522417 -6977.04087445 -267399.953875 -307695.545525 -188787.456688 292124.787324 257325.796907 212686.2917 211164.28834 10123.3035711 -6259.46561073 2585.02934346 13568.3637781 20290.4733055 17023.1175691 -242683.838878 -50288.1927608 -137310.4285 -61768.3274526 -16498.20985 -45052.3546132 -108654.098697 -16726.6690014 12802.710617 21054.2309366 258164.678574 117747.156504 174957.975884 225139.03721 145140.080813 247752.844632 327776.511852 313761.457159 322072.698673 31935.1234178 42285.2339801 13411.009674 100350.152917 146881.99013 222437.25407 18064.7685982 13332.1407831 -13114.2105181 -13252.8271722 7846.5602457 -4831.40194862 7217.20025581 2134.23149264 7014.78530652 19108.1174398 -5078.35200381 32069.2975415 18116.7353109 -38990.8620144 -16325.4215625 39568.3385533 39643.1894158 -26331.468166 -17725.2562353 -7029.23699913 -24899.2606959 9223.50213176 -16164.1594186 -600.29141963 -1636.96462693 -26733.2729232 19194.8691977 163449.731084 271025.400721 -314820.912159 322000.236559 -287939.304882 238524.004705 342167.080914 -325935.581746 123327.863426 -222935.798037 -295774.888947 243237.083333 -26.3157910625 161820.847352 31305.887233 -195895.253172 60122.6587602 163753.758495 198557.998793 -173114.550397 77688.7536689 -197891.27642 -39209.3621424 44867.6129807 8043.71247845 22474.4477497 -1448.20983558 -17317.6641071 163121.596591 282417.735785 15655.7748708 20215.0047814 7951.32598239 12174.7144604 2941.70744464 -4400.34894089 16318.7411078 8726.05559376 6121.77801853 -93963.1603217 -162555.794251 -47944.4637817 -106754.630422 -227872.953559 -256011.427308 -205888.725388 299838.688407 321467.009902 126055.04486 207856.720237 -133919.478652 -256096.773502 -320688.66757 157012.739858 276422.937102 120984.602424 -20006.3376329 40830.6925932 91487.9958358 87055.1559367 36424.7711284 20717.1287058 -166754.282995 -157854.009476 -34386.5857493 6598.92297277 -5409.69753642 11855.9374963 2750.67819543 -112.309025901 2603.1092838 20279.9528651 63974.5083709 -9408.46290322 42378.1900766 100188.751795 -70296.7754035 -120401.340398 249418.108466 45277.2737322 50198.4604043 138355.708489 -15595.6600516 -56676.1003364 -12673.676157 -343.096731661 24837.8699391 -12803.3269206 281903.27523 101896.598001 151011.418624 234279.56025 -133379.914998 -997.01654356 -6323.91461048 27161.037623 32759.0562562 11421.2935056 -22668.0264397 -28133.5826203 -25988.8411971 -24416.2658328 -16020.3042084 -14521.0939746 29874.7724254 20534.9357919 41557.1792357 4090.91141482 3627.20056956 -5108.83256287 -2703.64405039 -82513.7408998 -141380.641018 -1764.590658 -208458.363083 -10243.1147644 -15770.5598193 -15040.439312 -86168.925027 -497.323667878 -72959.5899007 8646.56965648 -16847.8767201 8577.63459697 19959.6661247 -3813.05947442 -2748.95224292 3259.65242998 -6835.71778095 -95905.2793729 -44671.3317336 -11248.2036036 -28532.9394714 -12343.0978531 20941.824339 16946.472374 12995.5837521 23121.9620598 67642.1033755 36788.6768063 -245008.416813 244711.919435 -106504.217323 -17685.6954101 115351.514426 56165.0544787 84784.0960324 -70407.7322178 609.24576324 -146541.538396 -45055.0576794 145900.825034 46638.702566 -194967.354534 195290.20808 -125773.442556 -73052.0728742 132186.180257 75813.1409098 -90584.0592853 -30666.338668 -141770.253217 -91692.688884 145180.911627 97378.6713613 3815.23106181 -8339.14492474 163933.173151 128425.680947 -163912.242622 -124870.804237 -156276.717859 246679.047979 130741.723538 213752.529972 -27416.9258384 -9151.1631309 -248177.876102 -128568.000618 -218545.973582 -216225.202065 -143596.234482 217913.537405 145565.850238 -4394.62294031 -28747.2574365 -47572.5621278 2335.68847623 -476.460678845 1907.56617768 -2456.17813861 158775.489169 27634.6165882 8322.29499214 5095.53467438 31526.8764571 214502.879559 158601.370249 -79547.7373235 79946.8710011 -206006.30759 -23290.5650149 216999.554438 114119.963406 179508.946673 -227262.51049 -7604.89443611 -185525.262924 -53965.3261096 184333.516778 55244.0771781 -154846.693766 155627.21703 -193141.37202 -120350.029171 201904.57329 110861.882204 -231323.343925 -87553.4253146 -151711.335139 -95232.532525 155759.210062 102337.945718 28446.4446407 1040.20019731 87617.2154421 94843.5789757 -86895.0201249 -92166.6779544 -55228.3072916 26325.2632456 5373.91861596 7763.47539008 -248102.547139 -226053.920075 -26599.1968849 -6042.82552635 -7519.24450232 -39867.3433518 -31665.2952141 40144.862224 31037.5098134 -107866.966999 -118614.350639 -242751.761782 2418.39134511 -54.4870481406 143.773293657 -871.825992277 57014.5542425 279525.534043 174978.976634 208927.084897 181379.855752 -67376.9841303 -37037.171129 244943.552272 -245456.316395 105212.120602 17214.1401226 -115429.422795 -56524.1107509 -84912.0024825 69382.0961425 -1277.81954748 146357.803271 44854.945588 -145943.545218 -46816.0914571 195152.870705 -196040.844079 125320.239865 72756.7185986 -132129.757953 -76007.7260719 89707.3180922 30087.2210976 142035.728986 91681.6337374 -145113.026379 -97305.907085 -4117.51472324 8179.46063303 -163985.083663 -128258.344263 164048.257648 125265.853866 156802.95449 -247187.215291 -131120.08428 -214312.860044 26714.5975802 8515.75759588 248406.583076 128693.025987 218771.936772 216683.659214 143867.540509 -218234.876476 -145760.799926 3795.72638706 28084.1014004 46768.919575 -2149.1032416 887.231582642 -1817.61963158 2802.48680696 -158796.961933 -27382.9101249 -8496.32888769 -5035.9889994 -31498.9626622 -215304.085092 -159212.042765 79356.421655 -79408.0354574 205772.033456 23239.2938569 -216560.079126 -114480.094741 -180074.854966 227997.17801 7270.627877 185472.24035 54194.9179164 -183752.692259 -55135.6952526 154955.506169 -154570.230119 193151.355862 120568.447468 -201962.470129 -111200.889796 231452.494479 87319.7567955 152142.121377 95719.65217 -155462.936368 -102186.543415 -28751.6459069 -1232.29181401 -87124.6709289 -94411.1296638 87302.4676311 92601.8793175 55399.250422 -26015.6460617 -5300.4473662 -7635.24306508 248390.785412 226097.014472 26232.5361967 5728.78533983 7007.69294833 39611.4125891 31469.3646515 -39705.7991179 -30854.637439 107822.047557 118331.023985 242873.169602 -1932.61880117 585.030613372 -104.642972112 1183.72979879 -56449.4164363 -280477.179526 -175494.916219 -209486.776676 -182104.052725 -59790.1828315 -227517.678623 -165063.422683 -99231.5888736 -32024.2052099 -99737.2427868 -112647.002146 -66437.0522367 -136501.791322 -65214.6756124 -181554.222493 -131962.879652 -85914.4435059 -68753.088936 -220766.561628 -101829.908473 -186566.117198 -19807.5782362 -64960.6964903 -48597.64974 -74233.905647 -5101.36350998 -6110.7944661 -52481.2895478 -108960.104847 -27843.730191 -6647.16826245 -246273.862815 -211321.075539 -171961.479016 -104955.080136 -12690.8556812 -31203.4549522 -196204.924952 -175474.157568 -41742.9899366 -33796.7660989 -23245.3423786 -119248.846476 -114042.750528 -74488.2771285 -67064.6741607 -189399.01975 -163312.90809 -103015.399842 -168280.186433 -59409.9540109 -150477.816005 -139368.150152 -89662.2585872 -21937.9834464 -69983.8932389 -41439.2981639 -76309.5137282 -75365.6835029 -206915.588175 -114689.144218 -186681.398316 -54358.8707907 -107481.62133 -7263.38554917 -4196.02527399 -245917.439347 -210507.119291 -26912.3798632 -8219.95822103 -11324.3987241 -33301.6219341 -170927.48785 -107872.141997 -39120.0341194 -33987.1850321 -203630.529752 -173720.581136 65743.5397347 228200.660197 166830.930313 99697.7886387 34634.3503841 99937.5017111 113648.395096 66278.9585101 135807.105234 67120.4712014 181707.777958 132907.550063 86200.5987737 83078.6676064 221364.748928 103902.822978 188134.175328 21316.6373047 63783.5832414 50154.7319454 74561.1546711 6756.7177326 3717.1573709 50907.8151186 104614.834735 27086.7347282 6468.34116759 246022.478009 211871.493065 171711.003968 107892.316372 12404.7060839 33018.7366684 197661.012133 173485.879527 41343.1885349 32145.756089 28963.1536481 118966.594075 114040.728609 74302.5902677 69732.0086692 190360.321991 164809.718781 100198.880379 167808.75603 53975.4548916 151527.581625 141298.058045 89600.5703969 19905.6152697 69331.3615596 41548.7559616 75252.0109821 73608.0328815 205501.961184 118375.920702 185414.207072 42767.8102338 107416.0939 8647.68056609 5365.89157622 246643.600264 210757.379098 26787.4039851 7797.17658531 11811.5117505 32918.6354154 172487.989524 103024.061959 38495.1563198 34364.1992832 202381.567315 173173.045467 226185.220588 166001.186068 62282.5299234 97945.4187793 99981.8075942 110630.191668 31724.0660582 68083.7343797 134522.110271 181054.807407 131971.637148 71811.0359073 88661.4838313 220907.729767 67037.9015621 186125.379181 105080.412666 71071.5646697 16781.6454819 74259.5202235 47672.0243378 4396.66279484 5516.08603251 27131.5924541 108883.203958 28734.0804162 5727.05516551 243273.629731 210082.523029 175471.833106 101687.568957 13121.5572073 30562.5777919 197762.796645 176112.076183 42869.2053071 32707.1233306 119260.317906 112992.148484 32380.6793123 73424.8012624 189684.84978 160505.13195 63539.6699304 103691.735238 166087.098926 150219.926813 139702.924632 62217.8635027 90425.4925444 69414.3501068 22808.0929423 74861.4631832 42648.6348055 228266.953541 75981.8659165 182720.687215 110255.374004 44617.2720699 101140.991532 7526.12751218 5902.00467927 255053.907569 204129.639894 27738.2795256 8043.15895062 11557.3060119 31481.5386264 173991.028157 106057.256086 38367.619429 34944.1312553 212844.936487 160612.07289 -227462.377467 -164608.356918 -66798.3567758 -95396.7873114 -99563.4341642 -110273.772415 -31880.3998572 -69422.6459917 -135582.088964 -179812.554731 -130465.032895 -67119.1495333 -87377.2017604 -220306.048014 -77560.4809719 -184895.252026 -104939.923077 -71317.4324842 -21544.7282742 -74910.5998157 -43578.2686576 -6736.78092449 -3031.61187145 -37534.3012793 -104005.887149 -28092.6546103 -6030.35407982 -244518.134289 -210418.248104 -176695.83294 -103025.838517 -12680.0704678 -35883.8835122 -197204.389913 -173761.464102 -43885.3992958 -31205.1078492 -117709.774247 -112514.325013 -29396.7406299 -79072.4921704 -190986.868662 -163337.388531 -76498.6735592 -100296.11909 -164911.59773 -150619.12592 -142190.103976 -64488.2182658 -87393.2425691 -69490.610796 -21644.0103101 -74827.781676 -38828.7480383 -228211.104845 -72207.858614 -182355.454355 -120163.633406 -28801.7573945 -107469.370817 -6331.70924168 -5153.29274414 -255877.83466 -202827.656977 -27076.8717543 -8137.01653239 -11600.0001085 -32467.7812381 -177008.545473 -99440.2546887 -38394.876486 -34340.2168863 -211394.887087 -166575.404256</DataArray>