<?xml version="1.0" ?>
<VTKFile byte_order="LittleEndian" type="PolyData" version="0.1">
  <PolyData>
    <Piece NumberOfPoints="416" NumberOfPolys="828">
      <Points>
        <DataArray NumberOfComponents="3" format="ascii" type="Float32">-1.92000001675e-07 0.0 -1.10000001996e-07 0.0 1.92000001675e-07 -1.10000001996e-07 1.92000001675e-07 0.0 -1.10000001996e-07 0.0 -1.92000001675e-07 -1.10000001996e-07 -2.41999998707e-07 0.0 -5.9999997859e-08 0.0 2.41999998707e-07 -5.9999997859e-08 2.41999998707e-07 0.0 -5.9999997859e-08 0.0 -2.41999998707e-07 -5.9999997859e-08 -2.41999998707e-07 0.0 5.9999997859e-08 0.0 2.41999998707e-07 5.9999997859e-08 2.41999998707e-07 0.0 5.9999997859e-08 0.0 -2.41999998707e-07 5.9999997859e-08 -1.92000001675e-07 0.0 1.10000001996e-07 0.0 1.92000001675e-07 1.10000001996e-07 1.92000001675e-07 0.0 1.10000001996e-07 0.0 -1.92000001675e-07 1.10000001996e-07 -1.87186159906e-07 4.27240181011e-08 -1.10000001996e-07 -1.72986020175e-07 8.33056787997e-08 -1.10000001996e-07 -1.5011164578e-07 1.19710037438e-07 -1.10000001996e-07 -1.19710037438e-07 1.5011164578e-07 -1.10000001996e-07 -8.33056787997e-08 1.72986020175e-07 -1.10000001996e-07 -4.27240181011e-08 1.87186159906e-07 -1.10000001996e-07 4.27240181011e-08 1.87186159906e-07 -1.10000001996e-07 8.33056787997e-08 1.72986020175e-07 -1.10000001996e-07 1.19710037438e-07 1.5011164578e-07 -1.10000001996e-07 1.5011164578e-07 1.19710037438e-07 -1.10000001996e-07 1.72986020175e-07 8.33056787997e-08 -1.10000001996e-07 1.87186159906e-07 4.27240181011e-08 -1.10000001996e-07 1.87186159906e-07 -4.27240181011e-08 -1.10000001996e-07 1.72986020175e-07 -8.33056787997e-08 -1.10000001996e-07 1.5011164578e-07 -1.19710037438e-07 -1.10000001996e-07 1.19710037438e-07 -1.5011164578e-07 -1.10000001996e-07 8.33056787997e-08 -1.72986020175e-07 -1.10000001996e-07 4.27240181011e-08 -1.87186159906e-07 -1.10000001996e-07 -4.27240181011e-08 -1.87186159906e-07 -1.10000001996e-07 -8.33056787997e-08 -1.72986020175e-07 -1.10000001996e-07 -1.19710037438e-07 -1.5011164578e-07 -1.10000001996e-07 -1.5011164578e-07 -1.19710037438e-07 -1.10000001996e-07 -1.72986020175e-07 -8.33056787997e-08 -1.10000001996e-07 -1.87186159906e-07 -4.27240181011e-08 -1.10000001996e-07 -2.37350036514e-07 4.72118593109e-08 -5.9999997859e-08 -2.23578851433e-07 9.26093903786e-08 -5.9999997859e-08 -2.01215641482e-07 1.34448001177e-07 -5.9999997859e-08 -1.71119836523e-07 1.71119836523e-07 -5.9999997859e-08 -1.34448001177e-07 2.01215641482e-07 -5.9999997859e-08 -9.26093903786e-08 2.23578851433e-07 -5.9999997859e-08 -4.72118593109e-08 2.37350036514e-07 -5.9999997859e-08 4.72118593109e-08 2.37350036514e-07 -5.9999997859e-08 9.26093903786e-08 2.23578851433e-07 -5.9999997859e-08 1.34448001177e-07 2.01215641482e-07 -5.9999997859e-08 1.71119836523e-07 1.71119836523e-07 -5.9999997859e-08 2.01215641482e-07 1.34448001177e-07 -5.9999997859e-08 2.23578851433e-07 9.26093903786e-08 -5.9999997859e-08 2.37350036514e-07 4.72118593109e-08 -5.9999997859e-08 2.37350036514e-07 -4.72118593109e-08 -5.9999997859e-08 2.23578851433e-07 -9.26093903786e-08 -5.9999997859e-08 2.01215641482e-07 -1.34448001177e-07 -5.9999997859e-08 1.71119836523e-07 -1.71119836523e-07 -5.9999997859e-08 1.34448001177e-07 -2.01215641482e-07 -5.9999997859e-08 9.26093903786e-08 -2.23578851433e-07 -5.9999997859e-08 4.72118593109e-08 -2.37350036514e-07 -5.9999997859e-08 -4.72118593109e-08 -2.37350036514e-07 -5.9999997859e-08 -9.26093903786e-08 -2.23578851433e-07 -5.9999997859e-08 -1.34448001177e-07 -2.01215641482e-07 -5.9999997859e-08 -1.71119836523e-07 -1.71119836523e-07 -5.9999997859e-08 -2.01215641482e-07 -1.34448001177e-07 -5.9999997859e-08 -2.23578851433e-07 -9.26093903786e-08 -5.9999997859e-08 -2.37350036514e-07 -4.72118593109e-08 -5.9999997859e-08 -2.37350036514e-07 4.72118593109e-08 5.9999997859e-08 -2.23578851433e-07 9.26093903786e-08 5.9999997859e-08 -2.01215641482e-07 1.34448001177e-07 5.9999997859e-08 -1.71119836523e-07 1.71119836523e-07 5.9999997859e-08 -1.34448001177e-07 2.01215641482e-07 5.9999997859e-08 -9.26093903786e-08 2.23578851433e-07 5.9999997859e-08 -4.72118593109e-08 2.37350036514e-07 5.9999997859e-08 4.72118593109e-08 2.37350036514e-07 5.9999997859e-08 9.26093903786e-08 2.23578851433e-07 5.9999997859e-08 1.34448001177e-07 2.01215641482e-07 5.9999997859e-08 1.71119836523e-07 1.71119836523e-07 5.9999997859e-08 2.01215641482e-07 1.34448001177e-07 5.9999997859e-08 2.23578851433e-07 9.26093903786e-08 5.9999997859e-08 2.37350036514e-07 4.72118593109e-08 5.9999997859e-08 2.37350036514e-07 -4.72118593109e-08 5.9999997859e-08 2.23578851433e-07 -9.26093903786e-08 5.9999997859e-08 2.01215641482e-07 -1.34448001177e-07 5.9999997859e-08 1.71119836523e-07 -1.71119836523e-07 5.9999997859e-08 1.34448001177e-07 -2.01215641482e-07 5.9999997859e-08 9.26093903786e-08 -2.23578851433e-07 5.9999997859e-08 4.72118593109e-08 -2.37350036514e-07 5.9999997859e-08 -4.72118593109e-08 -2.37350036514e-07 5.9999997859e-08 -9.26093903786e-08 -2.23578851433e-07 5.9999997859e-08 -1.34448001177e-07 -2.01215641482e-07 5.9999997859e-08 -1.71119836523e-07 -1.71119836523e-07 5.9999997859e-08 -2.01215641482e-07 -1.34448001177e-07 5.9999997859e-08 -2.23578851433e-07 -9.26093903786e-08 5.9999997859e-08 -2.37350036514e-07 -4.72118593109e-08 5.9999997859e-08 -1.87186159906e-07 4.27240181011e-08 1.10000001996e-07 -1.72986020175e-07 8.33056787997e-08 1.10000001996e-07 -1.5011164578e-07 1.19710037438e-07 1.10000001996e-07 -1.19710037438e-07 1.5011164578e-07 1.10000001996e-07 -8.33056787997e-08 1.72986020175e-07 1.10000001996e-07 -4.27240181011e-08 1.87186159906e-07 1.10000001996e-07 4.27240181011e-08 1.87186159906e-07 1.10000001996e-07 8.33056787997e-08 1.72986020175e-07 1.10000001996e-07 1.19710037438e-07 1.5011164578e-07 1.10000001996e-07 1.5011164578e-07 1.19710037438e-07 1.10000001996e-07 1.72986020175e-07 8.33056787997e-08 1.10000001996e-07 1.87186159906e-07 4.27240181011e-08 1.10000001996e-07 1.87186159906e-07 -4.27240181011e-08 1.10000001996e-07 1.72986020175e-07 -8.33056787997e-08 1.10000001996e-07 1.5011164578e-07 -1.19710037438e-07 1.10000001996e-07 1.19710037438e-07 -1.5011164578e-07 1.10000001996e-07 8.33056787997e-08 -1.72986020175e-07 1.10000001996e-07 4.27240181011e-08 -1.87186159906e-07 1.10000001996e-07 -4.27240181011e-08 -1.87186159906e-07 1.10000001996e-07 -8.33056787997e-08 -1.72986020175e-07 1.10000001996e-07 -1.19710037438e-07 -1.5011164578e-07 1.10000001996e-07 -1.5011164578e-07 -1.19710037438e-07 1.10000001996e-07 -1.72986020175e-07 -8.33056787997e-08 1.10000001996e-07 -1.87186159906e-07 -4.27240181011e-08 1.10000001996e-07 -2.27355343441e-07 0.0 -9.53553396243e-08 0.0 2.27355343441e-07 -9.53553396243e-08 2.27355343441e-07 0.0 -9.53553396243e-08 0.0 -2.27355343441e-07 -9.53553396243e-08 -2.27355343441e-07 0.0 9.53553396243e-08 0.0 2.27355343441e-07 9.53553396243e-08 2.27355343441e-07 0.0 9.53553396243e-08 0.0 -2.27355343441e-07 9.53553396243e-08 -2.41999998707e-07 0.0 -1.99999998785e-08 -2.41999998707e-07 0.0 1.99999998785e-08 0.0 2.41999998707e-07 -1.99999998785e-08 0.0 2.41999998707e-07 1.99999998785e-08 2.41999998707e-07 0.0 -1.99999998785e-08 2.41999998707e-07 0.0 1.99999998785e-08 0.0 -2.41999998707e-07 -1.99999998785e-08 0.0 -2.41999998707e-07 1.99999998785e-08 4.26537312137e-08 -1.26742323303e-08 -1.10000001996e-07 -3.13025090293e-08 5.22174747886e-09 -1.10000001996e-07 4.51158186365e-08 -1.21074222648e-07 -1.10000001996e-07 1.10048581803e-07 -5.68393190292e-08 -1.10000001996e-07 1.43824109955e-07 -1.60426356643e-08 -1.10000001996e-07 -1.03375548122e-07 -5.00856067731e-08 -1.10000001996e-07 1.07740646627e-07 4.86373323838e-08 -1.10000001996e-07 -6.44505817604e-08 9.20432086104e-08 -1.10000001996e-07 -1.9646448024e-08 -1.5119783825e-07 -1.10000001996e-07 -3.1094391062e-08 7.53365867467e-08 -1.10000001996e-07 8.99713938907e-08 -1.17641869579e-08 -1.10000001996e-07 2.54627998686e-08 -8.53002433132e-08 -1.10000001996e-07 -1.47819122276e-07 4.56858266773e-08 -1.10000001996e-07 6.87775383312e-08 -8.28844619605e-08 -1.10000001996e-07 1.14432793907e-07 -1.05964886643e-07 -1.10000001996e-07 1.83192909731e-08 -1.56162911935e-07 -1.10000001996e-07 -1.4522946401e-07 -7.10712910745e-08 -1.10000001996e-07 8.43416003704e-08 -1.31638913103e-07 -1.10000001996e-07 1.50971104063e-07 -5.55669501523e-08 -1.10000001996e-07 1.4006778315e-07 -8.46402983257e-08 -1.10000001996e-07 2.77657701275e-08 5.83680659361e-08 -1.10000001996e-07 -1.13841025495e-08 3.95316241963e-08 -1.10000001996e-07 -2.5527844727e-08 -3.6663028169e-08 -1.10000001996e-07 6.75717046761e-08 7.15373289495e-08 -1.10000001996e-07 6.76825635537e-08 2.88133108484e-08 -1.10000001996e-07 -5.4850197273e-08 -1.45941115193e-07 -1.10000001996e-07 -1.03979658661e-07 -9.853016536e-08 -1.10000001996e-07 5.08402244748e-08 1.40922693959e-07 -1.10000001996e-07 -5.83726880166e-08 -6.62671695295e-08 -1.10000001996e-07 -6.30533278922e-08 -2.61693529069e-08 -1.10000001996e-07 -1.09679717752e-07 9.96423494826e-08 -1.10000001996e-07 1.65985492018e-09 -4.21536716644e-09 -1.10000001996e-07 1.12365846405e-07 1.66997846662e-08 -1.10000001996e-07 1.18717061071e-07 8.21581735977e-08 -1.10000001996e-07 -1.88047906136e-08 -8.31586604022e-08 -1.10000001996e-07 -5.26660990374e-08 4.33633786656e-08 -1.10000001996e-07 -1.03003756635e-07 5.24155083781e-08 -1.10000001996e-07 4.8536299424e-09 -1.21464765357e-07 -1.10000001996e-07 4.18306811412e-08 -5.10556930067e-08 -1.10000001996e-07 -1.21814863974e-07 1.17724860971e-08 -1.10000001996e-07 -3.6725666952e-09 8.8919811958e-08 -1.10000001996e-07 -4.74581760557e-08 1.39963418633e-07 -1.10000001996e-07 -1.36349299851e-07 -2.71714615252e-08 -1.10000001996e-07 5.47612835078e-08 -1.53809651238e-07 -1.10000001996e-07 -7.69369847831e-08 1.16851452958e-08 -1.10000001996e-07 -1.00933576164e-07 -1.63342157578e-08 -1.10000001996e-07 -1.83009685184e-09 1.28936505916e-07 -1.10000001996e-07 -1.37070188089e-07 7.94280978766e-08 -1.10000001996e-07 -8.52412256336e-08 1.30480003691e-07 -1.10000001996e-07 3.14172901028e-08 9
[...]
      <CellData>
        <DataArray Name="rho_e_real" format="ascii" type="Float32">-142674.11444 -63570.8339865 -24977.0373119 -116211.081785 -56425.0610747 -17909.8926389 152244.80812 -88780.1281175 -37042.1111883 -113189.699001 -80124.5550209 -154172.055462 -118999.150991 -81026.7575726 17582.6174445 -79307.4624008 -53243.3741933 150167.99601 -138352.797304 -98683.6658794 -76916.1948999 333.14024772 139493.468649 -31485.6275434 93184.3245159 70168.2221815 18428.741438 8190.82481095 6260.97804744 -50311.4812439 -45120.0476791 14860.4805205 15379.6815383 52011.9528632 112817.708284 -54260.1661757 -40106.2832319 27290.2947251 45545.3110281 57224.1570287 27013.5808944 -40420.7026532 -26901.7314325 7783.28556631 -1683.36221657 36946.2390683 23610.5138219 39637.3150858 72573.2723148 -60204.9378283 -24550.1079488 -29409.5515211 -54091.7489583 112502.003568 106423.544396 48887.5061888 51638.8302534 -125086.329691 -56206.2814068 -447.545538223 -13037.7933337 -14297.7963228 -1743.39176976 24615.4934924 24599.2316007 -63997.7448288 37465.5743234 39682.4523871 106476.015991 69028.2775725 78201.5161604 -3478.56123733 -14908.7914714 -112024.499293 -87600.5718441 14935.1981056 6750.35247964 89918.9464442 54644.3397423 69538.6350999 -2067.23956992 -6050.03528066 -10735.1876831 8721.7757339 20444.6812977 39602.7576639 -21981.9920835 -19451.6628061 27355.972726 -29621.1283417 39618.8043901 48660.1148036 11350.392049 -144240.677272 -97764.1807126 -72954.738833 -69186.1594482 -20779.7372709 -9328.19762976 -29902.9948492 16855.4148579 22609.9239149 7699.2361534 19331.4936485 -146450.735858 -74960.3580852 -109215.371866 90691.3755037 48384.7656458 74182.9304968 22276.0002565 39146.7245522 26849.4765415 49910.2967246 52268.6570821 53612.0328227 -48635.690189 -57025.2497093 142692.859985 92063.843299 -22760.4893856 -32924.5476873 -24576.4421931 2168.74339396 -8727.70873867 -15123.8505718 -3128.00683771 5355.04391826 -12649.4304528 71658.1548089 62276.18407 67500.164309 -44886.7796429 -43308.1698389 -30363.0305769 -95767.7265072 -57485.1224149 -44347.5495918 80016.4612832 86690.3516001 153172.936922 119931.210997 155487.934637 115017.609742 -25166.5925546 -12219.3524592 -15347.0870788 24624.1584578 1110.93787634 12854.8783639 15959.3954404 889.267645746 -22277.7331275 -51578.908367 -112178.336976 -45752.9868813 -138804.593713 -4535.19751268 -143113.493115 -82291.6349242 -67910.8449038 -21064.625259 12358.6359658 15427.4956506 -11262.6554679 -848.999081104 3730.8374037 24497.1066158 -7731.47504648 9291.90769706 48417.6828983 -26003.6643499 -15163.5608359 6628.76281944 -6052.18546389 -22182.2207969 -29403.2953132 -37558.8990845 -46618.5154621 28880.9756373 28240.4372094 10023.6142558 22210.7460648 30089.1634277 41490.8035934 64448.6026428 -114151.955924 -94914.8674394 -141230.947423 -100020.378715 -391.886686647 -6918.28381197 -69948.1104555 111887.466064 164265.663241 63264.7605036 148490.035794 126733.971154 104045.545726 118340.554852 91992.243898 -24577.1244042 -31579.6139725 -66339.1514597 -50087.2026633 -21849.4106046 22556.1694483 31488.685833 12693.6573567 9408.49158541 45411.8745123 33166.5276221 -13265.2884453 -7577.16066237 1075.34626147 -10818.1259752 -4280.48480237 11209.7964306 4692.91172621 47180.7473513 41065.9755582 -50918.526813 -43811.1636731 72863.6400807 -35852.3009491 22312.2995259 28521.5542267 78426.1937794 128713.999067 71014.5158219 -149313.105109 -110111.476646 -80677.1807315 60936.0147076 59667.0943682 56913.4827409 21220.0580746 34351.8411126 53222.2402302 45411.0070985 -19158.5753352 -26581.1949654 -9727.26038466 -29044.1266928 -67370.1971963 -51012.7644941 -154939.08994 -73766.4356848 -78954.4466476 -115718.528278 -19318.6410948 -52268.780888 -41085.3186839 -26903.0810072 -19671.2341971 146364.039958 94399.7275805 48089.1913268 59418.6915078 -2220.04029958 47288.4176372 57155.4167417 111123.802009 91671.7964817 96108.3383925 58829.1202456 93279.8570695 59799.7661881 82217.790836 18979.1503394 28205.7261388 15710.0855436 25601.9251031 -4192.36339445 22856.6156951 30510.8158124 6591.61075388 78636.1884725 71410.2766618 87426.2050457 49335.5910207 60960.9855015 60292.2722429 -115327.098067 -85152.2766934 -154717.707352 -113883.543171 -82225.303626 148882.853418 107278.286086 101031.535749 -45189.2421 -52237.1768556 -71969.6113996 -47454.5245158 -33481.5226316 -63421.5614628 -34642.1560057 -87234.9695979 -74310.95668 344381.051451 311221.309249 104618.851454 104962.542917 337718.713094 286936.800289 339088.447173 283827.257308 304571.114009 356524.826658 299558.376131 292939.196245 258631.69968 291082.889408 254273.062398 246089.59639 248307.8105 288369.143588 267548.651547 294782.974193 266744.325681 317181.620659 298450.231388 247091.206578 230439.679094 248189.939143 231270.375462 311373.420755 17077.8784638 174839.390814 182235.816567 173263.534192 184987.951124 118367.875056 37902.4131358 22437.2335084 13533.8071158 365575.458691 338518.290132 37795.4233235 22511.2631665 13964.178064 65206.5003123 55081.591891 65061.8089218 54909.0230645 317996.362367 315479.228134 333520.655848 230827.542636 175852.164444 66769.642267 103140.30008 116052.050754 367468.649643 315366.49899 348987.512831 345744.267721 -111989.188153 -75517.5211145 -356185.220457 -358369.410225 -176973.662328 -140446.778586 -184974.594191 -138756.032021 -138600.950249 -107130.342123 -78333.5540802 -235740.368599 -191291.601504 -235385.91512 -188473.090714 -293205.698651 -295300.313989 -185474.890345 -164269.915797 -196832.584146 -172529.379326 -125358.272988 -113775.018404 -231983.008908 -211881.082983 -234117.315192 -213810.734989 -19672.1583903 -317365.759305 -326802.406939 -260863.144065 -324091.844766 -265226.501823 -302879.290996 -365687.967233 -316838.256278 -337715.925817 -38788.0163346 -14538.4746359 -365663.396578 -316472.456971 -340164.789502 -335985.813143 -310695.041429 -336330.693534 -311068.077634 -25468.4640696 -59471.1215854 -68204.8337749 -234181.215022 -238876.648667 -321327.79451 -278860.651504 -297649.250367 -35283.9087375 -22789.4641848 -10236.5575381 -49386.9133603 -344456.701668 -311325.942285 -104592.831084 -104827.909803 -337767.385882 -286979.068199 -339096.006667 -283858.005307 -304598.31348 -356622.971499 -299638.465597 -292903.860368 -258620.436748 -291057.086815 -254260.629879 -245989.956029 -248215.52647 -288399.282196 -267568.407521 -294776.072618 -266741.712064 -317262.31822 -298512.912862 -247030.176697 -230402.610238 -248155.645553 -231236.00128 -311481.755334 -17027.1981803 -174735.013429 -182140.167071 -173172.944541 -184903.543206 -118305.301027 -37775.8365881 -22361.5747898 -13432.5635074 -365681.771381 -338610.197669 -37839.9396517 -22484.7591192 -13977.9702451 -65228.6876009 -55048.979164 -64945.9857043 -54821.998668 -318097.12827 -315569.513671 -333637.56752 -230776.080801 -175786.652851 -66704.3851928 -103066.735812 -115946.135227 -367643.45397 -315491.885788 -349143.398592 -345875.6005 112061.484088 75583.9141558 356089.39329 358225.789188 177046.334867 140491.350555 184983.004124 138796.848791 138679.42868 107157.788678 78376.7195036 235778.227071 191319.823166 235369.313231 188490.155123 293158.452819 295280.431612 185531.417602 164305.420161 196814.928004 172556.835174 125421.699296 113815.156221 231989.392236 211886.393704 234114.862156 213817.751809 19720.5459835 317253.467766 326749.725172 260830.814523 323966.701037 265162.096258 302772.622725 365502.331906 316709.826289 337554.18503 38755.6252482 14523.863733 365606.893402 316377.586439 340078.550395 335924.377127 310601.189185 336172.653017 310942.628475 25495.8185745 59497.6524723 68197.6857305 234181.399627 238847.760814 321219.484861 278776.251542 297559.852131 35385.7925746 22858.8748136 10330.9997074 49466.4489063 124818.923908 179180.47377 214572.457132 184489.105153 215590.367038 325293.169692 338611.265159 240771.798013 304240.91224 180069.17825 246416.363853 283122.110726 226577.313932 74086.3161761 109702.213885 119342.860953 149647.69577 229536.709986 360029.584728 287552.740607 365453.98059 242738.519308 284912.001058 30395.9390247 1407.04273603 404789.115375 389459.806372 41701.922981 3958.2930504 41616.4989624 80123.4559152 413289.772503 284017.993477 91950.5390937 70335.3985101 391668.990858 395653.673644 -219104.351319 -335991.056011 -319385.200577 -249403.247722 -121877.522928 -174777.404565 -218786.7192 -177225.087504 -252737.642444 -186495.937251 -296300.676917 -284137.653858 -199768.487383 -230242.048279 -363073.555754 -288570.21467 -361579.576593 -72282.8668288 -108918.672211 -120557.44469 -151221.743552 -31067.3529566 -1498.520755 -246067.999963 -286588.386538 -41905.7417342 -4330.49455696 -404818.678262 -389496.983022 -412647.880921 -282748.984381 -41893.3274517 -80983.1677971 -390772.299988 -395880.591862 -92587.5438344 -70605.8761832 -121726.907372 -178964.924742 -214249.934176 -184392.266325 -214897.051428 -325339.205852 -338669.278014 -242077.68761 -304086.194063 -178541.410239 -246197.728154 -282875.605967 -226357.689431 -71089.1788674 -109749.979681 -119081.275685 -149549.227388 -227750.413577 -360168.222908 -288720.204112 -365720.849374 -245192.578049 -287334.932736 -30369.3027372 -1514.0990251 -404897.887168 -389546.135908 -41781.1888065 -4128.6396255 -41745.0096171 -81588.1885277 -412848.001567 -285373.106864 -92285.3171327 -70745.1165817 -391946.109668 -395971.489767 213430.393062 335678.586807 319118.077498 248993.170663 123522.044302 174883.981713 218702.016618 178053.276668 252758.827247 187455.70282 296176.61561 283850.575391 200358.654662 230314.686745 362995.798906 285988.268203 361445.546167 72988.7164586 108908.833857 121082.088737 151439.456503 29625.948993 1016.01456935 244757.327794 284581.437106 41834.16687 4192.19681372 404799.431551 389514.552421 413326.255687 285414.835674 41730.7190353 80485.7624885 390916.74983 395662.389835 92419.4289366 70336.3803503 179256.800009 214991.110056 123605.095785 184984.766834 326056.703682 338502.570563 219547.908733 241853.991002 304222.008241 246522.550953 283197.258688 180757.651083 227393.638716 109921.189534 73875.6527858 149901.430087 119580.891111 367187.370957 231493.731056 365049.217851 287947.128548 246261.768156 286203.60848 31397.8712233 1144.79763813 405629.388703 389056.555095 41847.3180979 4126.84030682 41867.9395388 81071.7513632 413354.080894 283964.582205 92276.5118181 70593.9310408 392601.589238 395484.816857 -335816.385337 -319476.601653 -212470.953882 -248928.102223 -172788.917701 -218369.682874 -127847.523425 -178691.25796 -252211.527106 -296026.785507 -283984.820056 -186561.243163 -200834.024609 -363043.898165 -229427.255469 -361794.152612 -285715.713499 -107598.545889 -73812.6818401 -151643.597136 -120388.642238 -29181.8471358 -507.817856353 -245808.163204 -287619.315887 -42051.4735247 -4073.71865771 -404774.579369 -389562.922563 -413318.493033 -285144.036064 -41452.4040931 -80164.6914931 -390996.405601 -395968.700457 -91424.0091195 -70178.5005723 -179118.506483 -214574.871937 -123818.666563 -184307.944256 -325920.483052 -338555.869837 -216180.588423 -241129.505606 -304318.188925 -246363.031765 -283298.388963 -181415.086351 -226953.39383 -109758.533331 -72270.0298012 -149835.741015 -118943.913132 -367436.4835 -227870.942237 -365294.619552 -288690.435667 -246389.413509 -286694.791969 -28934.8966399 -1180.9758451 -405772.306474 -389264.93513 -41690.1390559 -3973.34706465 -41719.3505796 -80809.7288326 -413274.768321 -284636.765341 -92081.3921731 -70416.0801132 -392935.924296 -395912.573265 335684.828026 319439.298471 216874.830858 248671.963817 172790.733707 218279.781233 122181.705075 177899.222919 251980.877581 296131.225912 284114.923975 186322.352698 201354.068236 362954.518123 227609.565621 361566.564151 286621.083124 107655.007435 72597.9869529 151957.646663 121610.067592 29569.3128617 845.792283022 245081.636881 286326.905156 42163.7544394 4214.830878 404531.601665 389318.477265 413034.901405 283616.555813 41580.7592145 80554.4205288 390758.488307 395815.771496 91502.3064082 70025.2734724</DataArray>