<?xml version="1.0" ?>
<VTKFile byte_order="LittleEndian" type="PolyData" version="0.1">
  <PolyData>
    <Piece NumberOfPoints="416" NumberOfPolys="828">
      <Points>
        <DataArray NumberOfComponents="3" format="ascii" type="Float32">-1.92000001675e-07 0.0 -1.10000001996e-07 0.0 1.92000001675e-07 -1.10000001996e-07 1.92000001675e-07 0.0 -1.10000001996e-07 0.0 -1.92000001675e-07 -1.10000001996e-07 -2.41999998707e-07 0.0 -5.9999997859e-08 0.0 2.41999998707e-07 -5.9999997859e-08 2.41999998707e-07 0.0 -5.9999997859e-08 0.0 -2.41999998707e-07 -5.9999997859e-08 -2.41999998707e-07 0.0 5.9999997859e-08 0.0 2.41999998707e-07 5.9999997859e-08 2.41999998707e-07 0.0 5.9999997859e-08 0.0 -2.41999998707e-07 5.9999997859e-08 -1.92000001675e-07 0.0 1.10000001996e-07 0.0 1.92000001675e-07 1.10000001996e-07 1.92000001675e-07 0.0 1.10000001996e-07 0.0 -1.92000001675e-07 1.10000001996e-07 -1.87186159906e-07 4.27240181011e-08 -1.10000001996e-07 -1.72986020175e-07 8.33056787997e-08 -1.10000001996e-07 -1.5011164578e-07 1.19710037438e-07 -1.10000001996e-07 -1.19710037438e-07 1.5011164578e-07 -1.10000001996e-07 -8.33056787997e-08 1.72986020175e-07 -1.10000001996e-07 -4.27240181011e-08 1.87186159906e-07 -1.10000001996e-07 4.27240181011e-08 1.87186159906e-07 -1.10000001996e-07 8.33056787997e-08 1.72986020175e-07 -1.10000001996e-07 1.19710037438e-07 1.5011164578e-07 -1.10000001996e-07 1.5011164578e-07 1.19710037438e-07 -1.10000001996e-07 1.72986020175e-07 8.33056787997e-08 -1.10000001996e-07 1.87186159906e-07 4.27240181011e-08 -1.10000001996e-07 1.87186159906e-07 -4.27240181011e-08 -1.10000001996e-07 1.72986020175e-07 -8.33056787997e-08 -1.10000001996e-07 1.5011164578e-07 -1.19710037438e-07 -1.10000001996e-07 1.19710037438e-07 -1.5011164578e-07 -1.10000001996e-07 8.33056787997e-08 -1.72986020175e-07 -1.10000001996e-07 4.27240181011e-08 -1.87186159906e-07 -1.10000001996e-07 -4.27240181011e-08 -1.87186159906e-07 -1.10000001996e-07 -8.33056787997e-08 -1.72986020175e-07 -1.10000001996e-07 -1.19710037438e-07 -1.5011164578e-07 -1.10000001996e-07 -1.5011164578e-07 -1.19710037438e-07 -1.10000001996e-07 -1.72986020175e-07 -8.33056787997e-08 -1.10000001996e-07 -1.87186159906e-07 -4.27240181011e-08 -1.10000001996e-07 -2.37350036514e-07 4.72118593109e-08 -5.9999997859e-08 -2.23578851433e-07 9.26093903786e-08 -5.9999997859e-08 -2.01215641482e-07 1.34448001177e-07 -5.9999997859e-08 -1.71119836523e-07 1.71119836523e-07 -5.9999997859e-08 -1.34448001177e-07 2.01215641482e-07 -5.9999997859e-08 -9.26093903786e-08 2.23578851433e-07 -5.9999997859e-08 -4.72118593109e-08 2.37350036514e-07 -5.9999997859e-08 4.72118593109e-08 2.37350036514e-07 -5.9999997859e-08 9.26093903786e-08 2.23578851433e-07 -5.9999997859e-08 1.34448001177e-07 2.01215641482e-07 -5.9999997859e-08 1.71119836523e-07 1.71119836523e-07 -5.9999997859e-08 2.01215641482e-07 1.34448001177e-07 -5.9999997859e-08 2.23578851433e-07 9.26093903786e-08 -5.9999997859e-08 2.37350036514e-07 4.72118593109e-08 -5.9999997859e-08 2.37350036514e-07 -4.72118593109e-08 -5.9999997859e-08 2.23578851433e-07 -9.26093903786e-08 -5.9999997859e-08 2.01215641482e-07 -1.34448001177e-07 -5.9999997859e-08 1.71119836523e-07 -1.71119836523e-07 -5.9999997859e-08 1.34448001177e-07 -2.01215641482e-07 -5.9999997859e-08 9.26093903786e-08 -2.23578851433e-07 -5.9999997859e-08 4.72118593109e-08 -2.37350036514e-07 -5.9999997859e-08 -4.72118593109e-08 -2.37350036514e-07 -5.9999997859e-08 -9.26093903786e-08 -2.23578851433e-07 -5.9999997859e-08 -1.34448001177e-07 -2.01215641482e-07 -5.9999997859e-08 -1.71119836523e-07 -1.71119836523e-07 -5.9999997859e-08 -2.01215641482e-07 -1.34448001177e-07 -5.9999997859e-08 -2.23578851433e-07 -9.26093903786e-08 -5.9999997859e-08 -2.37350036514e-07 -4.72118593109e-08 -5.9999997859e-08 -2.37350036514e-07 4.72118593109e-08 5.9999997859e-08 -2.23578851433e-07 9.26093903786e-08 5.9999997859e-08 -2.01215641482e-07 1.34448001177e-07 5.9999997859e-08 -1.71119836523e-07 1.71119836523e-07 5.9999997859e-08 -1.34448001177e-07 2.01215641482e-07 5.9999997859e-08 -9.26093903786e-08 2.23578851433e-07 5.9999997859e-08 -4.72118593109e-08 2.37350036514e-07 5.9999997859e-08 4.72118593109e-08 2.37350036514e-07 5.9999997859e-08 9.26093903786e-08 2.23578851433e-07 5.9999997859e-08 1.34448001177e-07 2.01215641482e-07 5.9999997859e-08 1.71119836523e-07 1.71119836523e-07 5.9999997859e-08 2.01215641482e-07 1.34448001177e-07 5.9999997859e-08 2.23578851433e-07 9.26093903786e-08 5.9999997859e-08 2.37350036514e-07 4.72118593109e-08 5.9999997859e-08 2.37350036514e-07 -4.72118593109e-08 5.9999997859e-08 2.23578851433e-07 -9.26093903786e-08 5.9999997859e-08 2.01215641482e-07 -1.34448001177e-07 5.9999997859e-08 1.71119836523e-07 -1.71119836523e-07 5.9999997859e-08 1.34448001177e-07 -2.01215641482e-07 5.9999997859e-08 9.26093903786e-08 -2.23578851433e-07 5.9999997859e-08 4.72118593109e-08 -2.37350036514e-07 5.9999997859e-08 -4.72118593109e-08 -2.37350036514e-07 5.9999997859e-08 -9.26093903786e-08 -2.23578851433e-07 5.9999997859e-08 -1.34448001177e-07 -2.01215641482e-07 5.9999997859e-08 -1.71119836523e-07 -1.71119836523e-07 5.9999997859e-08 -2.01215641482e-07 -1.34448001177e-07 5.9999997859e-08 -2.23578851433e-07 -9.26093903786e-08 5.9999997859e-08 -2.37350036514e-07 -4.72118593109e-08 5.9999997859e-08 -1.87186159906e-07 4.27240181011e-08 1.10000001996e-07 -1.72986020175e-07 8.33056787997e-08 1.10000001996e-07 -1.5011164578e-07 1.19710037438e-07 1.10000001996e-07 -1.19710037438e-07 1.5011164578e-07 1.10000001996e-07 -8.33056787997e-08 1.72986020175e-07 1.10000001996e-07 -4.27240181011e-08 1.87186159906e-07 1.10000001996e-07 4.27240181011e-08 1.87186159906e-07 1.10000001996e-07 8.33056787997e-08 1.72986020175e-07 1.10000001996e-07 1.19710037438e-07 1.5011164578e-07 1.10000001996e-07 1.5011164578e-07 1.19710037438e-07 1.10000001996e-07 1.72986020175e-07 8.33056787997e-08 1.10000001996e-07 1.87186159906e-07 4.27240181011e-08 1.10000001996e-07 1.87186159906e-07 -4.27240181011e-08 1.10000001996e-07 1.72986020175e-07 -8.33056787997e-08 1.10000001996e-07 1.5011164578e-07 -1.19710037438e-07 1.10000001996e-07 1.19710037438e-07 -1.5011164578e-07 1.10000001996e-07 8.33056787997e-08 -1.72986020175e-07 1.10000001996e-07 4.27240181011e-08 -1.87186159906e-07 1.10000001996e-07 -4.27240181011e-08 -1.87186159906e-07 1.10000001996e-07 -8.33056787997e-08 -1.72986020175e-07 1.10000001996e-07 -1.19710037438e-07 -1.5011164578e-07 1.10000001996e-07 -1.5011164578e-07 -1.19710037438e-07 1.10000001996e-07 -1.72986020175e-07 -8.33056787997e-08 1.10000001996e-07 -1.87186159906e-07 -4.27240181011e-08 1.10000001996e-07 -2.27355343441e-07 0.0 -9.53553396243e-08 0.0 2.27355343441e-07 -9.53553396243e-08 2.27355343441e-07 0.0 -9.53553396243e-08 0.0 -2.27355343441e-07 -9.53553396243e-08 -2.27355343441e-07 0.0 9.53553396243e-08 0.0 2.27355343441e-07 9.53553396243e-08 2.27355343441e-07 0.0 9.53553396243e-08 0.0 -2.27355343441e-07 9.53553396243e-08 -2.41999998707e-07 0.0 -1.99999998785e-08 -2.41999998707e-07 0.0 1.99999998785e-08 0.0 2.41999998707e-07 -1.99999998785e-08 0.0 2.41999998707e-07 1.99999998785e-08 2.41999998707e-07 0.0 -1.99999998785e-08 2.41999998707e-07 0.0 1.99999998785e-08 0.0 -2.41999998707e-07 -1.99999998785e-08 0.0 -2.41999998707e-07 1.99999998785e-08 4.26537312137e-08 -1.26742323303e-08 -1.10000001996e-07 -3.13025090293e-08 5.22174747886e-09 -1.10000001996e-07 4.51158186365e-08 -1.21074222648e-07 -1.10000001996e-07 1.10048581803e-07 -5.68393190292e-08 -1.10000001996e-07 1.43824109955e-07 -1.60426356643e-08 -1.10000001996e-07 -1.03375548122e-07 -5.00856067731e-08 -1.10000001996e-07 1.07740646627e-07 4.86373323838e-08 -1.10000001996e-07 -6.44505817604e-08 9.20432086104e-08 -1.10000001996e-07 -1.9646448024e-08 -1.5119783825e-07 -1.10000001996e-07 -3.1094391062e-08 7.53365867467e-08 -1.10000001996e-07 8.99713938907e-08 -1.17641869579e-08 -1.10000001996e-07 2.54627998686e-08 -8.53002433132e-08 -1.10000001996e-07 -1.47819122276e-07 4.56858266773e-08 -1.10000001996e-07 6.87775383312e-08 -8.28844619605e-08 -1.10000001996e-07 1.14432793907e-07 -1.05964886643e-07 -1.10000001996e-07 1.83192909731e-08 -1.56162911935e-07 -1.10000001996e-07 -1.4522946401e-07 -7.10712910745e-08 -1.10000001996e-07 8.43416003704e-08 -1.31638913103e-07 -1.10000001996e-07 1.50971104063e-07 -5.55669501523e-08 -1.10000001996e-07 1.4006778315e-07 -8.46402983257e-08 -1.10000001996e-07 2.77657701275e-08 5.83680659361e-08 -1.10000001996e-07 -1.13841025495e-08 3.95316241963e-08 -1.10000001996e-07 -2.5527844727e-08 -3.6663028169e-08 -1.10000001996e-07 6.75717046761e-08 7.15373289495e-08 -1.10000001996e-07 6.76825635537e-08 2.88133108484e-08 -1.10000001996e-07 -5.4850197273e-08 -1.45941115193e-07 -1.10000001996e-07 -1.03979658661e-07 -9.853016536e-08 -1.10000001996e-07 5.08402244748e-08 1.40922693959e-07 -1.10000001996e-07 -5.83726880166e-08 -6.62671695295e-08 -1.10000001996e-07 -6.30533278922e-08 -2.61693529069e-08 -1.10000001996e-07 -1.09679717752e-07 9.96423494826e-08 -1.10000001996e-07 1.65985492018e-09 -4.21536716644e-09 -1.10000001996e-07 1.12365846405e-07 1.66997846662e-08 -1.10000001996e-07 1.18717061071e-07 8.21581735977e-08 -1.10000001996e-07 -1.88047906136e-08 -8.31586604022e-08 -1.10000001996e-07 -5.26660990374e-08 4.33633786656e-08 -1.10000001996e-07 -1.03003756635e-07 5.24155083781e-08 -1.10000001996e-07 4.8536299424e-09 -1.21464765357e-07 -1.10000001996e-07 4.18306811412e-08 -5.10556930067e-08 -1.10000001996e-07 -1.21814863974e-07 1.17724860971e-08 -1.10000001996e-07 -3.6725666952e-09 8.8919811958e-08 -1.10000001996e-07 -4.74581760557e-08 1.39963418633e-07 -1.10000001996e-07 -1.36349299851e-07 -2.71714615252e-08 -1.10000001996e-07 5.47612835078e-08 -1.53809651238e-07 -1.10000001996e-07 -7.69369847831e-08 1.16851452958e-08 -1.10000001996e-07 -1.00933576164e-07 -1.63342157578e-08 -1.10000001996e-07 -1.83009685184e-09 1.28936505916e-07 -1.10000001996e-07 -1.37070188089e-07 7.94280978766e-08 -1.10000001996e-07 -8.52412256336e-08 1.30480003691e-07 -1.10000001996e-07 3.14172901028e-08 9
[...]
      <CellData>
        <DataArray Name="rho_e_real" format="ascii" type="Float32">278503.6029 1480206.59489 735954.135389 140293.488673 1068415.75742 10856.4445619 -187746.856514 71842.5645304 665359.582325 529302.993996 1028374.41385 165808.211519 329699.34149 818331.031264 -15024.8143506 260975.037738 687989.604858 -232746.504299 132015.08914 304989.725117 767140.997237 -5120.99669502 -141447.606347 1651488.50268 -426497.086699 -964257.081584 -1162486.51457 -575027.549063 -452812.14076 1643355.085 1810952.2866 -936026.333014 -850406.914401 -1059873.75892 -528535.615439 157486.941122 349988.357602 -1540786.6824 -1638537.02903 -49833.5423609 -109800.316577 1519021.13966 1283180.99734 -379925.676562 92996.9510096 -1521720.55475 -1269274.55812 -1812897.18458 -1301981.09513 24583.7770506 237451.640887 64357.5820382 60465.0156939 -179402.672844 -198947.215311 -1255049.0614 -63524.294389 225819.12839 1247001.51524 5900.31764543 189002.442751 370051.700689 56629.6116326 -1425344.78124 -1020546.36607 1609783.37712 -1329147.89656 -1664948.65315 -422999.192344 -952921.98314 -969976.49737 116355.035859 282800.097248 97245.6921838 384082.685 -256356.37968 -198599.684591 -53898.9283146 -182009.083738 -362481.035432 174575.101781 397254.06811 761331.618717 -128749.026335 -238302.288468 -944140.202708 1347863.0831 1137313.14462 -438984.706925 548960.633371 -436934.289474 -624911.544058 -413846.292055 239425.247636 550761.821622 1349381.02916 1117611.61038 855398.630808 396536.834828 881250.660035 -841794.769142 -814407.765862 -236980.104877 -515833.805428 257566.207804 1231818.38479 617813.902215 -68206.3493805 -211626.758199 -327388.355622 -717193.839815 -559877.970289 -588789.449079 -710507.474532 -1769141.20649 -1680780.65405 1041866.12827 687827.481204 -161425.535871 -417034.890888 938229.173602 1633083.63261 1360183.34353 -139146.84124 597188.103863 936574.669889 164590.310211 -308177.934272 673425.221416 -1111338.79727 -1523640.78336 -1529358.03375 1637985.52061 1392109.632 1307486.92494 93580.9467205 180291.4454 491083.584226 -1153489.49428 -981757.122026 -217668.230492 -426954.455265 -169882.214865 -575736.675009 105171.881673 112263.424683 -1450.82975182 -103246.188203 -9858.04992635 -131156.147521 1880.34207361 1260.24885695 19550.0246875 25897.9868748 135865.778366 157145.306028 181196.487976 10544.7411035 244927.973571 85548.5149904 291075.441235 15162.1566922 -278693.759707 -534381.725678 484467.187064 49433.7673042 -243619.418497 -1206044.02984 422440.947275 -489569.737909 -1561809.34256 1256040.13915 805809.590448 -431505.862169 419320.759321 1286500.16631 1611852.72046 1288815.30175 704958.731145 -1489840.45025 -802763.706519 -682756.882022 -1362918.05483 -1414549.124 -1776425.02776 -1380163.44794 135791.893443 344339.710189 165031.226416 329593.19391 23759.8500813 218614.896227 1390570.1141 -90576.0650587 -176963.597453 -1539719.84408 -237817.540821 -214305.683772 -404990.755042 -474041.467813 -375407.975119 1438072.91829 1571416.26614 1115211.63188 1414562.70949 668424.492444 -997666.030265 -933099.095122 -698732.50364 -425791.549277 -1286677.00787 -1160567.35689 877665.683111 468671.596882 -53160.2810039 712457.434692 268816.798819 -768410.665904 -341410.128036 -1789690.95807 -1717532.1846 1654674.52676 1813763.70472 -1266981.05505 985643.863538 -1317685.0789 -1588387.59021 -940295.829719 -190151.225327 -1028529.87671 233234.451927 599994.30912 1239874.7069 -25359.5592197 -1044480.4351 -51168.2652218 -311876.280904 -614728.29251 -1698345.93652 -1566799.7775 653879.903235 310673.041493 128288.278013 628262.32102 765147.238481 791990.944499 201892.512252 835587.51828 970349.532506 482861.957353 847446.617554 1054153.55603 1432396.28605 1264261.01024 368608.010513 -248638.055329 -581913.051695 -556463.104114 -715787.551665 -2172.66400241 -382263.840282 -461930.782919 -85443.9411357 -334979.714416 -71570.4750467 -183641.409283 -42624.4355764 -100846.455611 -171377.381374 -27718.7230864 -105750.209638 -10784.8009441 -130094.845946 74270.5308175 -485616.316061 -336305.366528 -170824.281815 -1233286.40637 -1397658.00301 -952829.655137 -987733.683898 -580346.29481 -1232367.84337 470661.339697 1019008.6468 178350.511759 369600.95277 906919.759713 -275231.820287 -638192.807408 -672609.533712 1656060.8792 1734672.23146 1401360.45421 461483.346791 341807.536152 37863.0125583 93070.3686549 50434.7787906 198853.55367 404708.276851 682155.068816 107990.723786 132973.86504 366463.943367 866746.907805 309062.011576 813732.593453 556308.620948 380620.884186 939338.357651 291190.992012 760887.202008 300810.980387 753245.018906 288439.998646 314195.115594 421528.544055 756234.342447 404549.315313 706357.607287 471073.485703 854484.282552 421641.174095 689521.522474 426129.067922 683960.116332 933081.156051 54446.9363839 308749.687106 436806.570371 278681.402906 437035.175366 297001.469877 49751.6859684 77827.9202064 28252.3774063 341069.482362 552619.011643 39377.700503 74622.9567532 27219.1933332 117509.070739 159887.347689 131387.432768 165306.067637 896854.007821 857986.26288 471072.065315 702124.730193 635659.511712 214609.367807 361509.973885 305741.576118 251958.328767 845488.346324 509491.3633 571327.586795 -174250.457069 -189293.548461 -370238.307739 -357555.285509 -203331.832712 -448158.155486 -216912.309307 -437600.595367 -281380.155229 -120910.647578 -267118.828645 -238444.346656 -582125.857088 -264289.018637 -582473.976413 -321558.622186 -338557.310504 -283643.619097 -485516.818764 -307981.706436 -481483.188579 -199882.095413 -346723.169591 -408959.664882 -636256.303134 -419976.683157 -637662.886261 -53460.3420947 -944552.088529 -499974.326844 -610333.653995 -492856.839772 -627623.879611 -676742.744663 -304505.762534 -861011.552599 -536842.001724 -39538.3267268 -22192.4304721 -331596.733294 -875539.819812 -557305.383908 -533905.139771 -856869.733846 -512392.552427 -846632.437 -84373.1398289 -165203.543877 -104659.710916 -714359.218258 -820062.83157 -930972.655022 -937034.041773 -649001.34837 -36367.9342891 -77521.7132843 -14771.4453908 -89817.7479817 -404459.982939 -682389.581562 -107898.318785 -133598.113575 -365463.247186 -866256.974054 -309058.440427 -813371.181449 -556111.91221 -380492.347477 -939676.838964 -289583.489509 -759839.958098 -301289.946782 -752686.443341 -286995.015824 -314772.395208 -420120.620001 -755342.557526 -404639.328901 -705990.375349 -470563.85564 -854275.891423 -420089.580665 -688441.427483 -426388.271523 -683461.26312 -934188.678344 -55382.9277066 -309085.202204 -436817.214252 -277937.881351 -436040.960724 -296811.747058 -50668.1633859 -78750.6517717 -29276.2794092 -341654.532911 -553500.782928 -39629.021919 -75366.9960448 -27812.1842349 -117789.327565 -160484.087911 -132133.47604 -166175.633096 -897781.679313 -858592.366237 -471495.795396 -701300.850157 -634895.871853 -215255.791788 -361786.038743 -305966.320704 -252107.344111 -846290.338281 -510085.726931 -571752.778533 174072.837464 188722.122222 370203.45736 357179.609702 203482.109259 448183.879003 217424.875206 437757.367904 281572.148666 120675.52117 266691.710623 238875.408882 582316.185258 265164.57816 582911.245733 321626.927641 339284.02882 283953.304365 485608.039039 308657.155421 481908.101886 199840.176759 346544.204209 409114.271149 636415.520168 420735.771451 638125.595248 52585.700694 943276.620546 499955.695254 610512.308468 492550.944649 627307.913686 676198.878327 304162.484948 859802.992497 536191.679386 39048.2911238 21599.871303 331319.287376 874338.730678 556464.217508 533614.676417 855788.604432 511700.239709 845424.984155 83613.5682801 164608.475986 104204.567837 714599.588377 820063.897112 929731.702659 936020.895758 648469.113314 35469.4142053 76605.2693633 13765.1816202 88968.1520683 -116350.252115 93660.6191503 -40293.1828788 13822.9729406 -253794.847811 186282.490222 -18078.9311562 -43135.1327457 199480.136953 -182881.303537 146411.739885 -14972.2396797 9272.33531656 -53111.6512452 72191.2680326 21272.1534074 -24791.0686475 -241611.125112 182994.144549 19637.3169575 -86272.3528147 -203247.198571 -40471.2168195 -12141.2494374 -10826.3949767 149809.938739 -44108.2218226 22131.0651571 -13966.5966673 13194.0542286 52156.215555 -97900.5848419 10382.0434409 11983.5486904 -8817.84683274 -53263.872533 -108947.469478 212202.894075 -143443.891779 81668.5755531 22940.0170233 134099.989093 -114833.300331 -1006.95873109 2725.08220486 -173420.801169 202764.177621 -175655.122641 9086.52586951 -6245.31654093 237621.472275 -172979.049837 -3842.62792522 103295.359581 60598.9737855 -72615.416518 -28434.575174 16598.3867011 13078.1420846 12981.1396432 171607.311509 28349.3015504 -18966.7118632 16318.4242206 -150973.585504 43488.5397322 100298.828462 7226.47904579 -10576.3427131 -49450.3307894 56894.140839 111350.258619 -10039.0460621 10595.9656281 129137.77673 -91986.9905428 42553.1202051 -9421.7745196 277099.066312 -184184.032256 20397.162199 48404.2521047 -196915.951314 201560.381954 -144747.969332 16755.6183475 -6433.45602267 67795.1328371 -71373.3864166 -17171.1722652 25322.0691333 252133.337368 -182907.396768 -12343.6115294 86762.6685149 163295.315342 37172.0972603 12272.9165002 10708.9185731 -150304.95814 42942.1948265 -21914.0393373 14379.2013273 -12335.5079304 -51187.0880832 101795.606854 874.152622328 -10990.5344154 10193.7207961 52091.797712 108298.889044 -245916.42778 143419.79932 -82070.7717391 -18503.3798159 -137849.817585 115119.982148 1855.98573013 372.779285418 175365.860153 -185047.653877 175870.119669 -8703.50361223 6846.48531844 -223061.669883 174090.760219 313.743709559 -102479.321805 -60274.374416 72713.0047419 29785.6193685 -16188.9922626 -10909.2064965 -13836.2783648 -184558.416847 -43369.8766858 18443.9664012 -16612.523534 150865.558251 -44286.8899805 -96557.9583351 18122.8573278 9993.09781489 50017.9021322 -54080.7722047 -111475.044544 9679.13703253 -11093.1993379 125215.633854 -6525.41856491 -92326.6351255 37296.3539553 184852.521704 -13682.1280245 -241967.307118 -46833.4000145 214137.630919 172755.316237 5384.25704285 -190195.180507 27941.9310854 96736.0112543 -30591.2277872 8846.15642881 47446.0906473 125228.389178 -243698.51485 -108807.700501 6219.6579048 -193184.043466 -61608.4208089 2112.87204057 -4385.55349486 116905.489476 -75672.1229823 33857.3041591 -5982.91216373 19941.028393 63509.5102339 -139075.15424 -18701.2097755 30232.830082 10265.7507804 -101287.21691 -139753.617436 -141266.436147 71855.8053659 243836.599203 9094.88823177 -145059.149612 -35592.8208323 101206.749909 -29165.404423 -204081.183429 -193329.049507 -17811.5196969 182909.87645 -29489.95558 -154796.770664 254228.824039 116678.694148 -218.970971345 -80376.8380781 42586.1755752 -14124.522563 -56335.3935326 4829.30569158 8081.35365238 210431.846205 63922.1560557 -27831.1199601 10013.9098174 -118537.668213 78105.3866705 139632.52324 22427.5434211 -12500.6831973 -58716.8562158 89073.0146885 142346.184795 -21889.2334971 -6856.40359752 -125326.828535 6691.27543812 99919.4211831 -41518.5765252 -184503.899573 13855.0355805 258157.519612 40812.5294201 -215222.215061 -174063.712435 -6457.22666855 173160.615766 -32631.9657042 -97557.6316026 38875.5212142 -9472.75101944 -46305.7810843 -124667.381286 273496.040081 109796.35735 -5849.29571674 216154.757997 58923.8813526 -2344.81161544 3758.15577035 -116739.308831 76315.7810667 -34756.4208073 5271.1575195 -20726.0301132 -64399.061674 139826.735221 19993.4080414 -31357.1997667 -11417.8106431 101909.027291 138849.537452 141195.60868 -71221.0021291 -229512.035404 -12680.4308152 145331.278489 36559.4954533 -122109.97811 24889.2051506 204028.64314 193637.349274 19317.0043589 -191543.994106 25695.0700601 154836.734867 -259668.443295 -116815.333348 1512.77740111 80236.5921288 -42622.9898978 15226.1451162 57105.12292 -372.576816195 -9974.87742483 -211752.375284 -58482.2497531 26940.6663877 -11059.4270028 118713.984699 -77514.0391672 -137975.658477 -18639.4326754 11562.6970558 58507.4059247 -88782.1266236 -141296.362589 21548.587367 5554.08646022</DataArray>