<?xml version="1.0" ?>
<VTKFile byte_order="LittleEndian" type="PolyData" version="0.1">
  <PolyData>
    <Piece NumberOfPoints="416" NumberOfPolys="828">
      <Points>
        <DataArray NumberOfComponents="3" format="ascii" type="Float32">-1.92000001675e-07 0.0 -1.10000001996e-07 0.0 1.92000001675e-07 -1.10000001996e-07 1.92000001675e-07 0.0 -1.10000001996e-07 0.0 -1.92000001675e-07 -1.10000001996e-07 -2.41999998707e-07 0.0 -5.9999997859e-08 0.0 2.41999998707e-07 -5.9999997859e-08 2.41999998707e-07 0.0 -5.9999997859e-08 0.0 -2.41999998707e-07 -5.9999997859e-08 -2.41999998707e-07 0.0 5.9999997859e-08 0.0 2.41999998707e-07 5.9999997859e-08 2.41999998707e-07 0.0 5.9999997859e-08 0.0 -2.41999998707e-07 5.9999997859e-08 -1.92000001675e-07 0.0 1.10000001996e-07 0.0 1.92000001675e-07 1.10000001996e-07 1.92000001675e-07 0.0 1.10000001996e-07 0.0 -1.92000001675e-07 1.10000001996e-07 -1.87186159906e-07 4.27240181011e-08 -1.10000001996e-07 -1.72986020175e-07 8.33056787997e-08 -1.10000001996e-07 -1.5011164578e-07 1.19710037438e-07 -1.10000001996e-07 -1.19710037438e-07 1.5011164578e-07 -1.10000001996e-07 -8.33056787997e-08 1.72986020175e-07 -1.10000001996e-07 -4.27240181011e-08 1.87186159906e-07 -1.10000001996e-07 4.27240181011e-08 1.87186159906e-07 -1.10000001996e-07 8.33056787997e-08 1.72986020175e-07 -1.10000001996e-07 1.19710037438e-07 1.5011164578e-07 -1.10000001996e-07 1.5011164578e-07 1.19710037438e-07 -1.10000001996e-07 1.72986020175e-07 8.33056787997e-08 -1.10000001996e-07 1.87186159906e-07 4.27240181011e-08 -1.10000001996e-07 1.87186159906e-07 -4.27240181011e-08 -1.10000001996e-07 1.72986020175e-07 -8.33056787997e-08 -1.10000001996e-07 1.5011164578e-07 -1.19710037438e-07 -1.10000001996e-07 1.19710037438e-07 -1.5011164578e-07 -1.10000001996e-07 8.33056787997e-08 -1.72986020175e-07 -1.10000001996e-07 4.27240181011e-08 -1.87186159906e-07 -1.10000001996e-07 -4.27240181011e-08 -1.87186159906e-07 -1.10000001996e-07 -8.33056787997e-08 -1.72986020175e-07 -1.10000001996e-07 -1.19710037438e-07 -1.5011164578e-07 -1.10000001996e-07 -1.5011164578e-07 -1.19710037438e-07 -1.10000001996e-07 -1.72986020175e-07 -8.33056787997e-08 -1.10000001996e-07 -1.87186159906e-07 -4.27240181011e-08 -1.10000001996e-07 -2.37350036514e-07 4.72118593109e-08 -5.9999997859e-08 -2.23578851433e-07 9.26093903786e-08 -5.9999997859e-08 -2.01215641482e-07 1.34448001177e-07 -5.9999997859e-08 -1.71119836523e-07 1.71119836523e-07 -5.9999997859e-08 -1.34448001177e-07 2.01215641482e-07 -5.9999997859e-08 -9.26093903786e-08 2.23578851433e-07 -5.9999997859e-08 -4.72118593109e-08 2.37350036514e-07 -5.9999997859e-08 4.72118593109e-08 2.37350036514e-07 -5.9999997859e-08 9.26093903786e-08 2.23578851433e-07 -5.9999997859e-08 1.34448001177e-07 2.01215641482e-07 -5.9999997859e-08 1.71119836523e-07 1.71119836523e-07 -5.9999997859e-08 2.01215641482e-07 1.34448001177e-07 -5.9999997859e-08 2.23578851433e-07 9.26093903786e-08 -5.9999997859e-08 2.37350036514e-07 4.72118593109e-08 -5.9999997859e-08 2.37350036514e-07 -4.72118593109e-08 -5.9999997859e-08 2.23578851433e-07 -9.26093903786e-08 -5.9999997859e-08 2.01215641482e-07 -1.34448001177e-07 -5.9999997859e-08 1.71119836523e-07 -1.71119836523e-07 -5.9999997859e-08 1.34448001177e-07 -2.01215641482e-07 -5.9999997859e-08 9.26093903786e-08 -2.23578851433e-07 -5.9999997859e-08 4.72118593109e-08 -2.37350036514e-07 -5.9999997859e-08 -4.72118593109e-08 -2.37350036514e-07 -5.9999997859e-08 -9.26093903786e-08 -2.23578851433e-07 -5.9999997859e-08 -1.34448001177e-07 -2.01215641482e-07 -5.9999997859e-08 -1.71119836523e-07 -1.71119836523e-07 -5.9999997859e-08 -2.01215641482e-07 -1.34448001177e-07 -5.9999997859e-08 -2.23578851433e-07 -9.26093903786e-08 -5.9999997859e-08 -2.37350036514e-07 -4.72118593109e-08 -5.9999997859e-08 -2.37350036514e-07 4.72118593109e-08 5.9999997859e-08 -2.23578851433e-07 9.26093903786e-08 5.9999997859e-08 -2.01215641482e-07 1.34448001177e-07 5.9999997859e-08 -1.71119836523e-07 1.71119836523e-07 5.9999997859e-08 -1.34448001177e-07 2.01215641482e-07 5.9999997859e-08 -9.26093903786e-08 2.23578851433e-07 5.9999997859e-08 -4.72118593109e-08 2.37350036514e-07 5.9999997859e-08 4.72118593109e-08 2.37350036514e-07 5.9999997859e-08 9.26093903786e-08 2.23578851433e-07 5.9999997859e-08 1.34448001177e-07 2.01215641482e-07 5.9999997859e-08 1.71119836523e-07 1.71119836523e-07 5.9999997859e-08 2.01215641482e-07 1.34448001177e-07 5.9999997859e-08 2.23578851433e-07 9.26093903786e-08 5.9999997859e-08 2.37350036514e-07 4.72118593109e-08 5.9999997859e-08 2.37350036514e-07 -4.72118593109e-08 5.9999997859e-08 2.23578851433e-07 -9.26093903786e-08 5.9999997859e-08 2.01215641482e-07 -1.34448001177e-07 5.9999997859e-08 1.71119836523e-07 -1.71119836523e-07 5.9999997859e-08 1.34448001177e-07 -2.01215641482e-07 5.9999997859e-08 9.26093903786e-08 -2.23578851433e-07 5.9999997859e-08 4.72118593109e-08 -2.37350036514e-07 5.9999997859e-08 -4.72118593109e-08 -2.37350036514e-07 5.9999997859e-08 -9.26093903786e-08 -2.23578851433e-07 5.9999997859e-08 -1.34448001177e-07 -2.01215641482e-07 5.9999997859e-08 -1.71119836523e-07 -1.71119836523e-07 5.9999997859e-08 -2.01215641482e-07 -1.34448001177e-07 5.9999997859e-08 -2.23578851433e-07 -9.26093903786e-08 5.9999997859e-08 -2.37350036514e-07 -4.72118593109e-08 5.9999997859e-08 -1.87186159906e-07 4.27240181011e-08 1.10000001996e-07 -1.72986020175e-07 8.33056787997e-08 1.10000001996e-07 -1.5011164578e-07 1.19710037438e-07 1.10000001996e-07 -1.19710037438e-07 1.5011164578e-07 1.10000001996e-07 -8.33056787997e-08 1.72986020175e-07 1.10000001996e-07 -4.27240181011e-08 1.87186159906e-07 1.10000001996e-07 4.27240181011e-08 1.87186159906e-07 1.10000001996e-07 8.33056787997e-08 1.72986020175e-07 1.10000001996e-07 1.19710037438e-07 1.5011164578e-07 1.10000001996e-07 1.5011164578e-07 1.19710037438e-07 1.10000001996e-07 1.72986020175e-07 8.33056787997e-08 1.10000001996e-07 1.87186159906e-07 4.27240181011e-08 1.10000001996e-07 1.87186159906e-07 -4.27240181011e-08 1.10000001996e-07 1.72986020175e-07 -8.33056787997e-08 1.10000001996e-07 1.5011164578e-07 -1.19710037438e-07 1.10000001996e-07 1.19710037438e-07 -1.5011164578e-07 1.10000001996e-07 8.33056787997e-08 -1.72986020175e-07 1.10000001996e-07 4.27240181011e-08 -1.87186159906e-07 1.10000001996e-07 -4.27240181011e-08 -1.87186159906e-07 1.10000001996e-07 -8.33056787997e-08 -1.72986020175e-07 1.10000001996e-07 -1.19710037438e-07 -1.5011164578e-07 1.10000001996e-07 -1.5011164578e-07 -1.19710037438e-07 1.10000001996e-07 -1.72986020175e-07 -8.33056787997e-08 1.10000001996e-07 -1.87186159906e-07 -4.27240181011e-08 1.10000001996e-07 -2.27355343441e-07 0.0 -9.53553396243e-08 0.0 2.27355343441e-07 -9.53553396243e-08 2.27355343441e-07 0.0 -9.53553396243e-08 0.0 -2.27355343441e-07 -9.53553396243e-08 -2.27355343441e-07 0.0 9.53553396243e-08 0.0 2.27355343441e-07 9.53553396243e-08 2.27355343441e-07 0.0 9.53553396243e-08 0.0 -2.27355343441e-07 9.53553396243e-08 -2.41999998707e-07 0.0 -1.99999998785e-08 -2.41999998707e-07 0.0 1.99999998785e-08 0.0 2.41999998707e-07 -1.99999998785e-08 0.0 2.41999998707e-07 1.99999998785e-08 2.41999998707e-07 0.0 -1.99999998785e-08 2.41999998707e-07 0.0 1.99999998785e-08 0.0 -2.41999998707e-07 -1.99999998785e-08 0.0 -2.41999998707e-07 1.99999998785e-08 4.26537312137e-08 -1.26742323303e-08 -1.10000001996e-07 -3.13025090293e-08 5.22174747886e-09 -1.10000001996e-07 4.51158186365e-08 -1.21074222648e-07 -1.10000001996e-07 1.10048581803e-07 -5.68393190292e-08 -1.10000001996e-07 1.43824109955e-07 -1.60426356643e-08 -1.10000001996e-07 -1.03375548122e-07 -5.00856067731e-08 -1.10000001996e-07 1.07740646627e-07 4.86373323838e-08 -1.10000001996e-07 -6.44505817604e-08 9.20432086104e-08 -1.10000001996e-07 -1.9646448024e-08 -1.5119783825e-07 -1.10000001996e-07 -3.1094391062e-08 7.53365867467e-08 -1.10000001996e-07 8.99713938907e-08 -1.17641869579e-08 -1.10000001996e-07 2.54627998686e-08 -8.53002433132e-08 -1.10000001996e-07 -1.47819122276e-07 4.56858266773e-08 -1.10000001996e-07 6.87775383312e-08 -8.28844619605e-08 -1.10000001996e-07 1.14432793907e-07 -1.05964886643e-07 -1.10000001996e-07 1.83192909731e-08 -1.56162911935e-07 -1.10000001996e-07 -1.4522946401e-07 -7.10712910745e-08 -1.10000001996e-07 8.43416003704e-08 -1.31638913103e-07 -1.10000001996e-07 1.50971104063e-07 -5.55669501523e-08 -1.10000001996e-07 1.4006778315e-07 -8.46402983257e-08 -1.10000001996e-07 2.77657701275e-08 5.83680659361e-08 -1.10000001996e-07 -1.13841025495e-08 3.95316241963e-08 -1.10000001996e-07 -2.5527844727e-08 -3.6663028169e-08 -1.10000001996e-07 6.75717046761e-08 7.15373289495e-08 -1.10000001996e-07 6.76825635537e-08 2.88133108484e-08 -1.10000001996e-07 -5.4850197273e-08 -1.45941115193e-07 -1.10000001996e-07 -1.03979658661e-07 -9.853016536e-08 -1.10000001996e-07 5.08402244748e-08 1.40922693959e-07 -1.10000001996e-07 -5.83726880166e-08 -6.62671695295e-08 -1.10000001996e-07 -6.30533278922e-08 -2.61693529069e-08 -1.10000001996e-07 -1.09679717752e-07 9.96423494826e-08 -1.10000001996e-07 1.65985492018e-09 -4.21536716644e-09 -1.10000001996e-07 1.12365846405e-07 1.66997846662e-08 -1.10000001996e-07 1.18717061071e-07 8.21581735977e-08 -1.10000001996e-07 -1.88047906136e-08 -8.31586604022e-08 -1.10000001996e-07 -5.26660990374e-08 4.33633786656e-08 -1.10000001996e-07 -1.03003756635e-07 5.24155083781e-08 -1.10000001996e-07 4.8536299424e-09 -1.21464765357e-07 -1.10000001996e-07 4.18306811412e-08 -5.10556930067e-08 -1.10000001996e-07 -1.21814863974e-07 1.17724860971e-08 -1.10000001996e-07 -3.6725666952e-09 8.8919811958e-08 -1.10000001996e-07 -4.74581760557e-08 1.39963418633e-07 -1.10000001996e-07 -1.36349299851e-07 -2.71714615252e-08 -1.10000001996e-07 5.47612835078e-08 -1.53809651238e-07 -1.10000001996e-07 -7.69369847831e-08 1.16851452958e-08 -1.10000001996e-07 -1.00933576164e-07 -1.63342157578e-08 -1.10000001996e-07 -1.83009685184e-09 1.28936505916e-07 -1.10000001996e-07 -1.37070188089e-07 7.94280978766e-08 -1.10000001996e-07 -8.52412256336e-08 1.30480003691e-07 -1.10000001996e-07 3.14172901028e-08 9
[...]
      <CellData>
        <DataArray Name="rho_e_real" format="ascii" type="Float32">235054.842192 124823.647347 50339.6799978 187233.693434 108106.845733 28994.2522041 -245551.227126 142234.88648 70415.7034108 194916.456482 149591.511573 249344.636892 199900.712143 147017.869007 -28787.4353138 134696.562523 99295.4390934 -242411.358327 224035.024305 167170.268563 140027.307309 -1158.22327343 -223580.005967 67526.9165172 -159913.191842 -131406.690342 -40173.7059009 -18083.8056021 -14057.6815638 102303.664993 94004.2245372 -32394.0584669 -32990.5621985 -100826.213874 -193245.625051 90941.8312534 72260.9954976 -58831.5662739 -93309.7056659 -91586.1440386 -46941.7910849 83202.9861486 57057.0199573 -16465.0390683 3725.41961015 -76764.4819804 -50455.5111175 -83389.7309163 -138607.077687 94746.6157945 45217.1839644 49073.0529666 87060.1483393 -182420.573385 -174079.7605 -96862.4434507 -83037.1239742 204009.776139 109865.404442 394.76778305 23879.5228308 28588.4518532 3721.45837133 -53271.1908358 -51443.9797007 126240.577558 -76450.1645306 -82804.192675 -181860.143334 -128991.21039 -144592.620827 6883.78859933 28779.7217062 180565.123228 149936.749321 -28466.3251841 -13601.1543432 -143421.118557 -92357.6447157 -121294.015577 4647.48472466 13259.4563355 24047.6322043 -16564.7036956 -37841.2630534 -77924.8748347 48199.992278 42316.8561976 -51805.1334063 57584.2759336 -73327.5503424 -90511.1864477 -23827.5518174 235754.539509 169933.502867 139986.46159 132236.311623 43152.2457347 20086.4621516 60249.9470276 -36175.2295336 -46630.1560206 -16131.9289834 -38333.0088542 239604.112855 143287.052263 190647.161498 -145088.003892 -84169.3362053 -127684.360073 -44789.2941508 -73567.4331193 -52630.6946873 -93173.0580216 -106140.831191 -108466.470144 94808.2688703 105769.889034 -228501.6235 -159217.185321 47791.2894068 70156.6411095 52772.5616659 -4615.00797339 19429.4263922 33048.5758558 6894.56363981 -11759.9822276 26906.985165 -135591.268301 -122811.142733 -131909.283294 92527.3214464 87820.5546927 63719.1390512 152441.853722 97145.0881318 82266.846868 -150626.208072 -159196.364043 -248497.17793 -203383.098217 -251298.803553 -197647.86136 42844.7082099 21963.651424 25331.2308476 -42850.0727016 -1591.72512723 -23268.4099725 -26215.99879 -1538.19872106 36577.9846502 82362.3126191 181931.297943 77938.4493087 223114.834568 8644.99860414 234203.721475 132350.272808 117689.194322 33506.8634095 -24470.5924184 -31276.283003 23501.282537 1945.95396577 -8399.40924309 -52196.4262224 16869.8384116 -20230.6804472 -98279.3540201 55019.0207053 32329.5996458 -14562.7829228 13386.7627103 48209.330825 63428.4690174 76523.2384218 88439.9411038 -61666.4062438 -56423.2858606 -22480.5325792 -48495.3500024 -63897.1874009 -86990.8212526 -125225.708403 183920.658909 161396.65313 226265.607123 169402.172444 1522.31908157 14192.1144731 134855.881968 -182282.084033 -262612.680812 -124423.157489 -241630.031169 -205705.517511 -177725.23205 -201623.22228 -157756.229619 53201.6384849 67324.416826 125779.186573 100138.325776 44219.252046 -47525.36804 -63509.768159 -27268.8061346 -19829.2874302 -90853.8240031 -68150.8482904 29308.6653769 16307.7036983 -2342.375347 23855.5602484 9502.17919756 -24909.1507097 -10534.8163926 -97373.7615937 -85811.0540921 103129.958004 91419.0834081 -139493.420725 71362.2777896 -48436.3357686 -61649.1514332 -145415.55084 -209162.146244 -134097.958773 242914.439594 191223.278095 151841.811868 -96592.4888412 -114276.182664 -91645.2948483 -40618.3434324 -65762.5937272 -107919.523361 -93232.0674818 39459.5059013 49268.5008896 18587.2194688 56398.8959021 124192.181238 96564.4644995 248723.904084 135773.086473 146167.463748 196884.634164 40755.6874675 101027.491768 84069.4050074 57022.2861809 37226.2492995 -237412.084231 -165597.207119 -88574.0719525 -110192.408957 4044.50467125 -84683.8293107 -102456.733358 -179761.151674 -156272.700253 -152979.558663 -99856.7379365 -148512.158917 -98634.7794096 -137463.682776 -31682.350459 -49564.2903443 -25292.4006235 -45484.4177828 7898.01556186 -44630.8369362 -57173.7955136 -13127.0337204 -149060.89509 -137594.996163 -160181.622301 -95482.4510754 -111464.292057 -117138.492209 196566.327503 156824.825421 249542.155208 192135.927327 150466.766899 -243540.8398 -188025.917909 -178471.589595 92792.1417493 106213.804946 138388.250632 86521.7551099 61547.488893 101258.193226 59085.1110819 138801.776487 124789.413673 -378370.678586 -343458.001499 -115652.019271 -115709.995805 -369915.184142 -318101.376975 -370971.391032 -315050.458756 -334323.829755 -390957.900076 -333255.642804 -320482.107761 -286685.576801 -318438.944846 -281835.129282 -268258.145072 -271127.731383 -316367.557646 -296271.755236 -322981.04901 -294519.712434 -348317.577781 -330759.813232 -271798.273427 -254441.494503 -272987.405099 -255237.337756 -345836.142256 -20785.9343352 -191823.924266 -202007.684983 -189965.076412 -204870.713146 -128474.637322 -41620.9089646 -23189.7737748 -16441.4538205 -401461.323967 -372568.372521 -41483.1773463 -23272.1189563 -16716.9019142 -70799.6228635 -62461.0135824 -70620.9488089 -62217.343779 -352995.03398 -349473.175891 -366240.220958 -256059.671628 -193502.326992 -72723.833191 -116312.443539 -125810.764836 -403200.584941 -349592.021525 -383655.616965 -380437.274229 121290.672108 84265.2876107 390079.302591 392487.257223 193233.482946 155396.802574 201958.237096 151903.887689 153467.5587 117380.659526 85542.0387496 257464.425473 211003.840676 257381.902967 207962.035775 322066.758814 324138.783973 201657.21383 181619.635142 214887.221001 190832.982861 136038.807645 126197.536178 253182.938495 235213.842318 255524.175683 237279.301035 23813.0984293 352416.723129 359280.905178 286178.627462 356249.392234 291256.50599 334649.17921 401405.595409 351434.677538 371634.856522 41872.5263278 17306.2122757 401536.158911 351079.604994 374361.873786 369400.190153 344317.938664 369656.45126 344678.307862 25807.0174727 66761.1037559 74042.3627844 257996.440979 266932.406398 356359.550145 309849.365079 328758.561862 39047.0995545 23059.9166871 12112.1206269 54341.8161587 378464.422246 343601.247735 115657.785313 115530.225307 370040.232195 318185.920015 371005.358088 315130.395051 334391.139822 391139.051981 333377.08797 320507.416367 286706.650189 318417.49414 281854.40513 268188.618317 271010.053246 316453.374425 296345.984333 323008.579323 294547.096846 348467.751858 330887.617072 271770.131618 254433.287893 272951.529714 255213.616607 345968.569991 20757.4272658 191677.268814 201889.987137 189887.134938 204797.596382 128434.45351 41474.6982336 23114.6044776 16337.690073 401670.698302 372725.777419 41564.3650074 23274.8219847 16774.1111137 70863.8337402 62452.4440896 70472.2845857 62132.8649723 353131.754943 349621.611142 366436.620922 256019.138785 193439.678633 72666.3585344 116242.487284 125667.467953 403364.904716 349748.312487 383817.587672 380581.639311 -121334.224765 -84310.9167776 -389964.949489 -392377.673713 -193299.339764 -155410.948898 -201927.986871 -151908.910993 -153518.041649 -117391.954209 -85544.3903918 -257497.606494 -211010.337092 -257336.706281 -207950.404249 -322003.21384 -324107.028787 -201706.103305 -181640.904192 -214834.302255 -190831.313671 -136079.004531 -126217.051177 -253174.277281 -235208.957656 -255484.730619 -237269.794007 -23839.9753657 -352292.41644 -359260.540933 -286141.452455 -356108.591794 -291189.10674 -334552.048051 -401246.211598 -351302.818941 -371473.615236 -41810.5515446 -17254.6282127 -401420.030847 -350972.002964 -374224.224481 -369334.736447 -344216.22434 -369510.939964 -344566.317808 -25792.9561556 -66764.4435232 -74000.2675826 -257978.357879 -266911.031332 -356262.233019 -309777.973843 -328692.300957 -39138.95246 -23116.2640048 -12210.0099406 -54402.4762676 -169036.979176 -202598.508491 -246821.82954 -235925.528657 -292297.66739 -369012.670487 -389595.771613 -306260.897123 -342243.468801 -239915.353568 -277593.513551 -323347.772477 -286191.530827 -98743.8551529 -123716.360619 -154873.526475 -172093.287172 -307527.493254 -406731.834756 -369157.807951 -421138.666957 -340526.447373 -372631.599592 -41895.2100966 -4807.10376548 -450789.22536 -442050.646386 -46390.0491323 -4106.47166853 -48667.525144 -100235.264353 -496393.217577 -372440.065646 -105532.880082 -84191.5760357 -444570.274554 -473348.266292 297209.766288 380586.484377 368882.762179 319728.640962 165351.397497 198024.890807 250297.93846 223707.220157 284327.633599 249458.832106 334791.102654 325085.22437 254063.559437 307611.646187 409941.274238 371204.299901 416960.300007 96003.1906205 122238.099308 155814.737555 173364.505041 42434.0891503 4667.31814336 345432.959182 375198.622992 46051.5875267 3913.71086205 450940.497709 442326.87481 495904.54932 370975.576586 48449.7640853 100813.132476 443714.05838 473815.127328 105686.747072 83994.9019452 164950.241191 202373.475082 246515.367498 236183.650255 290315.902007 369228.108387 389755.696798 308047.432043 342207.14824 238093.649609 277422.052362 323220.523719 286167.970968 94580.6470047 123767.521257 154753.737848 171990.915386 304015.616296 407084.47298 370918.412721 421564.638869 342911.211346 376296.071252 41575.1809216 4755.39961613 451087.439899 442410.002461 46459.0941779 4228.03827493 48686.600781 101577.117832 496084.008743 374532.581805 105850.328374 84498.6383124 445130.14127 473952.868088 -289972.99798 -380154.684029 -368512.28394 -319257.252448 -166818.473272 -198203.895591 -250208.676731 -224847.613719 -284367.165319 -250451.953679 -334602.416069 -324721.447736 -254690.710233 -307937.203441 -409758.098707 -367437.825627 -416765.696005 -96896.8360815 -122289.181236 -156023.975508 -173708.304591 -40874.2005728 -4344.10357879 -343273.597229 -372125.044313 -46000.6133061 -3818.03454984 -450783.200606 -442111.151998 -496481.465004 -374342.360428 -48419.7760442 -100478.052735 -443774.409355 -473334.724061 -105587.250622 -83809.5827705 -202598.601623 -247319.392727 -167026.915373 -236057.153579 -370214.283696 -389585.071352 -297394.538448 -307590.919474 -342396.716736 -277818.467973 -323544.388558 -239739.702866 -287366.153299 -123766.429389 -97860.5364418 -172257.528555 -154850.063191 -414501.3983 -310438.454015 -420758.857612 -369808.005565 -345673.729337 -374717.181637 -43105.9478666 -4344.87879567 -451723.098547 -441718.185046 -46460.472208 -4075.21635485 -48731.9837722 -100901.126081 -496732.087657 -372613.853921 -105795.089099 -84254.3156407 -445766.911289 -473486.879046 380269.99734 368894.392908 288479.374657 319198.313059 195370.198544 249686.242323 172861.801581 225239.122171 283741.523272 334379.112413 324832.883187 249241.561584 255352.055291 409773.764688 307315.701559 417126.719215 367313.115009 119857.905625 98183.4116008 173776.516033 155142.832091 40062.9013695 4071.50336064 344208.34709 376588.35947 46485.967131 3870.08383808 450673.335327 442117.033815 496338.096209 374043.032492 48174.7138057 99489.6175619 443799.974714 473740.404778 104285.817599 83599.3966677 202418.637693 246804.877531 167645.780045 235704.434543 370021.657041 389638.203209 293105.87324 306708.110169 342475.569274 277618.678588 323632.022132 241703.748904 286461.914953 123618.884226 95796.7928434 172222.699407 154029.151076 414679.46917 304166.111737 420925.498721 370551.291059 345884.252095 375241.284489 39910.399169 4453.92237125 451788.776387 441803.243963 46301.8053404 3933.36969744 48633.5422672 100853.69022 496363.439106 373529.730976 105610.633384 84109.120054 446002.110434 473661.229436 -380257.088215 -368938.209504 -295112.520134 -319118.850668 -195383.695756 -249644.437999 -164856.785549 -224620.926554 -283487.074104 -334542.693035 -325020.7399 -247957.267707 -255799.319746 -409827.920678 -304893.71496 -417037.630216 -368887.224746 -119870.431903 -96126.4349638 -174099.210852 -156445.815576 -40602.5879951 -4119.64061778 -344361.445234 -374885.083501 -46561.6219823 -3963.86003028 -450508.580043 -441993.081402 -496335.536247 -372262.486575 -48252.2453621 -100291.522179 -443680.685718 -473820.361154 -104331.128919 -83312.4947734</DataArray>