<?xml version="1.0" ?>
<VTKFile byte_order="LittleEndian" type="PolyData" version="0.1">
  <PolyData>
    <Piece NumberOfPoints="416" NumberOfPolys="828">
      <Points>
        <DataArray NumberOfComponents="3" format="ascii" type="Float32">-1.92000001675e-07 0.0 -1.10000001996e-07 0.0 1.92000001675e-07 -1.10000001996e-07 1.92000001675e-07 0.0 -1.10000001996e-07 0.0 -1.92000001675e-07 -1.10000001996e-07 -2.41999998707e-07 0.0 -5.9999997859e-08 0.0 2.41999998707e-07 -5.9999997859e-08 2.41999998707e-07 0.0 -5.9999997859e-08 0.0 -2.41999998707e-07 -5.9999997859e-08 -2.41999998707e-07 0.0 5.9999997859e-08 0.0 2.41999998707e-07 5.9999997859e-08 2.41999998707e-07 0.0 5.9999997859e-08 0.0 -2.41999998707e-07 5.9999997859e-08 -1.92000001675e-07 0.0 1.10000001996e-07 0.0 1.92000001675e-07 1.10000001996e-07 1.92000001675e-07 0.0 1.10000001996e-07 0.0 -1.92000001675e-07 1.10000001996e-07 -1.87186159906e-07 4.27240181011e-08 -1.10000001996e-07 -1.72986020175e-07 8.33056787997e-08 -1.10000001996e-07 -1.5011164578e-07 1.19710037438e-07 -1.10000001996e-07 -1.19710037438e-07 1.5011164578e-07 -1.10000001996e-07 -8.33056787997e-08 1.72986020175e-07 -1.10000001996e-07 -4.27240181011e-08 1.87186159906e-07 -1.10000001996e-07 4.27240181011e-08 1.87186159906e-07 -1.10000001996e-07 8.33056787997e-08 1.72986020175e-07 -1.10000001996e-07 1.19710037438e-07 1.5011164578e-07 -1.10000001996e-07 1.5011164578e-07 1.19710037438e-07 -1.10000001996e-07 1.72986020175e-07 8.33056787997e-08 -1.10000001996e-07 1.87186159906e-07 4.27240181011e-08 -1.10000001996e-07 1.87186159906e-07 -4.27240181011e-08 -1.10000001996e-07 1.72986020175e-07 -8.33056787997e-08 -1.10000001996e-07 1.5011164578e-07 -1.19710037438e-07 -1.10000001996e-07 1.19710037438e-07 -1.5011164578e-07 -1.10000001996e-07 8.33056787997e-08 -1.72986020175e-07 -1.10000001996e-07 4.27240181011e-08 -1.87186159906e-07 -1.10000001996e-07 -4.27240181011e-08 -1.87186159906e-07 -1.10000001996e-07 -8.33056787997e-08 -1.72986020175e-07 -1.10000001996e-07 -1.19710037438e-07 -1.5011164578e-07 -1.10000001996e-07 -1.5011164578e-07 -1.19710037438e-07 -1.10000001996e-07 -1.72986020175e-07 -8.33056787997e-08 -1.10000001996e-07 -1.87186159906e-07 -4.27240181011e-08 -1.10000001996e-07 -2.37350036514e-07 4.72118593109e-08 -5.9999997859e-08 -2.23578851433e-07 9.26093903786e-08 -5.9999997859e-08 -2.01215641482e-07 1.34448001177e-07 -5.9999997859e-08 -1.71119836523e-07 1.71119836523e-07 -5.9999997859e-08 -1.34448001177e-07 2.01215641482e-07 -5.9999997859e-08 -9.26093903786e-08 2.23578851433e-07 -5.9999997859e-08 -4.72118593109e-08 2.37350036514e-07 -5.9999997859e-08 4.72118593109e-08 2.37350036514e-07 -5.9999997859e-08 9.26093903786e-08 2.23578851433e-07 -5.9999997859e-08 1.34448001177e-07 2.01215641482e-07 -5.9999997859e-08 1.71119836523e-07 1.71119836523e-07 -5.9999997859e-08 2.01215641482e-07 1.34448001177e-07 -5.9999997859e-08 2.23578851433e-07 9.26093903786e-08 -5.9999997859e-08 2.37350036514e-07 4.72118593109e-08 -5.9999997859e-08 2.37350036514e-07 -4.72118593109e-08 -5.9999997859e-08 2.23578851433e-07 -9.26093903786e-08 -5.9999997859e-08 2.01215641482e-07 -1.34448001177e-07 -5.9999997859e-08 1.71119836523e-07 -1.71119836523e-07 -5.9999997859e-08 1.34448001177e-07 -2.01215641482e-07 -5.9999997859e-08 9.26093903786e-08 -2.23578851433e-07 -5.9999997859e-08 4.72118593109e-08 -2.37350036514e-07 -5.9999997859e-08 -4.72118593109e-08 -2.37350036514e-07 -5.9999997859e-08 -9.26093903786e-08 -2.23578851433e-07 -5.9999997859e-08 -1.34448001177e-07 -2.01215641482e-07 -5.9999997859e-08 -1.71119836523e-07 -1.71119836523e-07 -5.9999997859e-08 -2.01215641482e-07 -1.34448001177e-07 -5.9999997859e-08 -2.23578851433e-07 -9.26093903786e-08 -5.9999997859e-08 -2.37350036514e-07 -4.72118593109e-08 -5.9999997859e-08 -2.37350036514e-07 4.72118593109e-08 5.9999997859e-08 -2.23578851433e-07 9.26093903786e-08 5.9999997859e-08 -2.01215641482e-07 1.34448001177e-07 5.9999997859e-08 -1.71119836523e-07 1.71119836523e-07 5.9999997859e-08 -1.34448001177e-07 2.01215641482e-07 5.9999997859e-08 -9.26093903786e-08 2.23578851433e-07 5.9999997859e-08 -4.72118593109e-08 2.37350036514e-07 5.9999997859e-08 4.72118593109e-08 2.37350036514e-07 5.9999997859e-08 9.26093903786e-08 2.23578851433e-07 5.9999997859e-08 1.34448001177e-07 2.01215641482e-07 5.9999997859e-08 1.71119836523e-07 1.71119836523e-07 5.9999997859e-08 2.01215641482e-07 1.34448001177e-07 5.9999997859e-08 2.23578851433e-07 9.26093903786e-08 5.9999997859e-08 2.37350036514e-07 4.72118593109e-08 5.9999997859e-08 2.37350036514e-07 -4.72118593109e-08 5.9999997859e-08 2.23578851433e-07 -9.26093903786e-08 5.9999997859e-08 2.01215641482e-07 -1.34448001177e-07 5.9999997859e-08 1.71119836523e-07 -1.71119836523e-07 5.9999997859e-08 1.34448001177e-07 -2.01215641482e-07 5.9999997859e-08 9.26093903786e-08 -2.23578851433e-07 5.9999997859e-08 4.72118593109e-08 -2.37350036514e-07 5.9999997859e-08 -4.72118593109e-08 -2.37350036514e-07 5.9999997859e-08 -9.26093903786e-08 -2.23578851433e-07 5.9999997859e-08 -1.34448001177e-07 -2.01215641482e-07 5.9999997859e-08 -1.71119836523e-07 -1.71119836523e-07 5.9999997859e-08 -2.01215641482e-07 -1.34448001177e-07 5.9999997859e-08 -2.23578851433e-07 -9.26093903786e-08 5.9999997859e-08 -2.37350036514e-07 -4.72118593109e-08 5.9999997859e-08 -1.87186159906e-07 4.27240181011e-08 1.10000001996e-07 -1.72986020175e-07 8.33056787997e-08 1.10000001996e-07 -1.5011164578e-07 1.19710037438e-07 1.10000001996e-07 -1.19710037438e-07 1.5011164578e-07 1.10000001996e-07 -8.33056787997e-08 1.72986020175e-07 1.10000001996e-07 -4.27240181011e-08 1.87186159906e-07 1.10000001996e-07 4.27240181011e-08 1.87186159906e-07 1.10000001996e-07 8.33056787997e-08 1.72986020175e-07 1.10000001996e-07 1.19710037438e-07 1.5011164578e-07 1.10000001996e-07 1.5011164578e-07 1.19710037438e-07 1.10000001996e-07 1.72986020175e-07 8.33056787997e-08 1.10000001996e-07 1.87186159906e-07 4.27240181011e-08 1.10000001996e-07 1.87186159906e-07 -4.27240181011e-08 1.10000001996e-07 1.72986020175e-07 -8.33056787997e-08 1.10000001996e-07 1.5011164578e-07 -1.19710037438e-07 1.10000001996e-07 1.19710037438e-07 -1.5011164578e-07 1.10000001996e-07 8.33056787997e-08 -1.72986020175e-07 1.10000001996e-07 4.27240181011e-08 -1.87186159906e-07 1.10000001996e-07 -4.27240181011e-08 -1.87186159906e-07 1.10000001996e-07 -8.33056787997e-08 -1.72986020175e-07 1.10000001996e-07 -1.19710037438e-07 -1.5011164578e-07 1.10000001996e-07 -1.5011164578e-07 -1.19710037438e-07 1.10000001996e-07 -1.72986020175e-07 -8.33056787997e-08 1.10000001996e-07 -1.87186159906e-07 -4.27240181011e-08 1.10000001996e-07 -2.27355343441e-07 0.0 -9.53553396243e-08 0.0 2.27355343441e-07 -9.53553396243e-08 2.27355343441e-07 0.0 -9.53553396243e-08 0.0 -2.27355343441e-07 -9.53553396243e-08 -2.27355343441e-07 0.0 9.53553396243e-08 0.0 2.27355343441e-07 9.53553396243e-08 2.27355343441e-07 0.0 9.53553396243e-08 0.0 -2.27355343441e-07 9.53553396243e-08 -2.41999998707e-07 0.0 -1.99999998785e-08 -2.41999998707e-07 0.0 1.99999998785e-08 0.0 2.41999998707e-07 -1.99999998785e-08 0.0 2.41999998707e-07 1.99999998785e-08 2.41999998707e-07 0.0 -1.99999998785e-08 2.41999998707e-07 0.0 1.99999998785e-08 0.0 -2.41999998707e-07 -1.99999998785e-08 0.0 -2.41999998707e-07 1.99999998785e-08 4.26537312137e-08 -1.26742323303e-08 -1.10000001996e-07 -3.13025090293e-08 5.22174747886e-09 -1.10000001996e-07 4.51158186365e-08 -1.21074222648e-07 -1.10000001996e-07 1.10048581803e-07 -5.68393190292e-08 -1.10000001996e-07 1.43824109955e-07 -1.60426356643e-08 -1.10000001996e-07 -1.03375548122e-07 -5.00856067731e-08 -1.10000001996e-07 1.07740646627e-07 4.86373323838e-08 -1.10000001996e-07 -6.44505817604e-08 9.20432086104e-08 -1.10000001996e-07 -1.9646448024e-08 -1.5119783825e-07 -1.10000001996e-07 -3.1094391062e-08 7.53365867467e-08 -1.10000001996e-07 8.99713938907e-08 -1.17641869579e-08 -1.10000001996e-07 2.54627998686e-08 -8.53002433132e-08 -1.10000001996e-07 -1.47819122276e-07 4.56858266773e-08 -1.10000001996e-07 6.87775383312e-08 -8.28844619605e-08 -1.10000001996e-07 1.14432793907e-07 -1.05964886643e-07 -1.10000001996e-07 1.83192909731e-08 -1.56162911935e-07 -1.10000001996e-07 -1.4522946401e-07 -7.10712910745e-08 -1.10000001996e-07 8.43416003704e-08 -1.31638913103e-07 -1.10000001996e-07 1.50971104063e-07 -5.55669501523e-08 -1.10000001996e-07 1.4006778315e-07 -8.46402983257e-08 -1.10000001996e-07 2.77657701275e-08 5.83680659361e-08 -1.10000001996e-07 -1.13841025495e-08 3.95316241963e-08 -1.10000001996e-07 -2.5527844727e-08 -3.6663028169e-08 -1.10000001996e-07 6.75717046761e-08 7.15373289495e-08 -1.10000001996e-07 6.76825635537e-08 2.88133108484e-08 -1.10000001996e-07 -5.4850197273e-08 -1.45941115193e-07 -1.10000001996e-07 -1.03979658661e-07 -9.853016536e-08 -1.10000001996e-07 5.08402244748e-08 1.40922693959e-07 -1.10000001996e-07 -5.83726880166e-08 -6.62671695295e-08 -1.10000001996e-07 -6.30533278922e-08 -2.61693529069e-08 -1.10000001996e-07 -1.09679717752e-07 9.96423494826e-08 -1.10000001996e-07 1.65985492018e-09 -4.21536716644e-09 -1.10000001996e-07 1.12365846405e-07 1.66997846662e-08 -1.10000001996e-07 1.18717061071e-07 8.21581735977e-08 -1.10000001996e-07 -1.88047906136e-08 -8.31586604022e-08 -1.10000001996e-07 -5.26660990374e-08 4.33633786656e-08 -1.10000001996e-07 -1.03003756635e-07 5.24155083781e-08 -1.10000001996e-07 4.8536299424e-09 -1.21464765357e-07 -1.10000001996e-07 4.18306811412e-08 -5.10556930067e-08 -1.10000001996e-07 -1.21814863974e-07 1.17724860971e-08 -1.10000001996e-07 -3.6725666952e-09 8.8919811958e-08 -1.10000001996e-07 -4.74581760557e-08 1.39963418633e-07 -1.10000001996e-07 -1.36349299851e-07 -2.71714615252e-08 -1.10000001996e-07 5.47612835078e-08 -1.53809651238e-07 -1.10000001996e-07 -7.69369847831e-08 1.16851452958e-08 -1.10000001996e-07 -1.00933576164e-07 -1.63342157578e-08 -1.10000001996e-07 -1.83009685184e-09 1.28936505916e-07 -1.10000001996e-07 -1.37070188089e-07 7.94280978766e-08 -1.10000001996e-07 -8.52412256336e-08 1.30480003691e-07 -1.10000001996e-07 3.14172901028e-08 9
[...]
      <CellData>
        <DataArray Name="rho_e_real" format="ascii" type="Float32">-33215.5229165 -44244.4061884 -19858.8341069 -22919.4406767 -35265.5256371 -3546.35453192 30760.2966237 -16117.8698708 -22689.4157948 -36318.8964066 -41935.5968233 -30875.4155206 -31967.7961184 -36755.5106283 3759.90108557 -22843.8716618 -27468.4693851 30467.345664 -27844.8753179 -27890.8703648 -35511.5162409 198.728938838 26758.023945 -34464.6475735 30003.3156412 37826.3797404 22275.8977382 10439.0847182 7948.16675735 -42104.0556147 -42389.1946289 17882.4994893 17163.5378546 33791.6107835 35598.245208 -15145.7649577 -17431.5772662 30904.5643754 40080.2215174 11193.6007263 9033.8944233 -36715.147562 -27940.8289352 8114.08217828 -2022.94152153 35292.7952516 26181.7432132 40013.9583104 44135.0923567 -9816.55990899 -10967.4577619 -7592.29406903 -10532.9638992 23485.322244 24100.0618994 36103.2549038 11244.9631794 -28466.4189362 -38592.8276914 -135.858825294 -7317.54482179 -10394.4988079 -1360.74217846 28370.6763883 23431.3760526 -46443.4841271 32964.2704243 37925.067814 32637.1096537 36964.7398449 39472.759836 -3202.14728885 -9530.93360512 -21585.0967226 -27659.5346344 9034.86336484 5412.91830305 16544.0223515 15854.0252303 24355.7714862 -2910.10133148 -7525.8652087 -13848.3047088 5055.8181106 10593.2395562 28135.0040354 -26251.9070458 -22558.5933148 16055.4691781 -18474.9812303 19238.514482 25883.8796806 10033.4834868 -31396.3757779 -34018.214929 -44951.9629527 -41504.458273 -19855.7059276 -9012.87675972 -23809.3231418 17870.647234 20196.377245 6157.14328112 14637.1365651 -32626.2278941 -44853.4191638 -37858.2355244 16931.9685143 16084.9075491 23552.0549963 18698.4974202 21522.8413432 18123.2306522 27507.2228861 44455.900153 43842.2331287 -32629.7643757 -29318.4968971 27580.7066821 29911.5488893 -21687.1448347 -34857.3975808 -27666.4293495 2745.40744878 -11026.3624977 -18104.2180844 -3245.20473462 6046.12021335 -13884.9122509 41020.0363239 44687.9802778 46508.1470569 -40140.3667355 -36110.7424124 -29640.7724544 -17533.8560944 -16252.3452077 -21872.3979859 44086.0928748 42099.8006929 31561.0733967 34464.2033095 30721.1795317 37081.4015683 -8203.28112309 -5699.79568756 -3128.67766061 8487.52344533 520.33834497 6256.93145676 3351.4779301 73.5955791981 4644.63999594 9892.1973228 23157.7038043 14548.3230182 27949.1602213 1453.90977013 31700.7549973 17773.7229249 22698.815045 4167.15249769 -8532.61577695 -13525.1994027 11028.8237572 938.075459603 -4680.43666313 -25762.1214661 8675.81734317 -10270.5245254 -40311.0031055 27022.9458503 16670.4377032 -8153.12949611 7731.52881863 25608.8686825 32698.9596689 32384.9696226 26781.5380919 -31279.2194691 -22315.6743576 -12672.9620204 -26475.8395831 -30983.7006182 -40288.8960722 -42951.7199976 23135.6034036 28247.124259 27705.1904563 28796.2601328 430.313488679 5810.24630174 44869.7453863 -23604.1249016 -30498.6976783 -44915.3971377 -31323.2018836 -27545.9536323 -31226.6190453 -35491.2441622 -29175.9022758 28461.2282123 33348.3677027 38988.3874023 38976.9264235 17837.5429088 -22668.8555931 -25506.0465866 -14283.4013183 -9421.42564835 -35355.7469155 -28961.9443617 16383.6693093 9146.7172311 -1361.50600719 13525.842179 5111.60027696 -14183.0784242 -6169.6085657 -42946.0934316 -39366.2539779 42481.9965197 41662.6799839 -44019.6737859 27664.0079843 -26096.4442556 -32280.3031597 -39639.8032966 -28217.9357075 -39961.4520473 31423.9569072 37658.8939468 45581.2437184 -11346.5295469 -36236.0494954 -12007.3928393 -12335.6311327 -21422.934931 -43954.1059656 -39196.8232544 16898.7567158 13957.3699949 5369.95390826 20160.0580603 33279.6536165 29222.8007028 30373.4984223 36329.415036 40096.3695377 35136.1985704 19289.3389064 34174.6983192 35893.1115152 27729.8542041 12731.7567377 -31064.9855674 -34654.54549 -24338.0184355 -30441.210064 214.828583001 -20403.1083265 -24547.683393 -22605.7969956 -27908.6886577 -18206.4230342 -17407.0792482 -16965.952104 -14626.9496624 -21877.3486594 -4349.05061504 -9310.34892515 -3502.84807871 -9271.49111421 2603.90054143 -15716.5110759 -15487.2811248 -5054.05823231 -44774.4645486 -45219.4002211 -41445.5795627 -32401.2470527 -28269.8732175 -39535.5167865 35203.8427807 42333.4660499 30809.3909402 32228.401523 39220.716417 -32765.8881536 -37934.6437948 -37810.509989 40199.1888054 44026.7974878 45422.5824425 22240.3698771 16186.0081899 12474.5238148 10252.7472329 16512.2357291 20575.1397941 4079.48123848 3453.51236341 -1413.02038068 1265.97706241 -4200.66615552 -1557.11417427 3961.94862611 2677.21821572 3744.42014279 -4545.09333315 -1106.09841305 -3720.1120301 -1902.65148086 3546.08925583 1810.77178309 -3036.85356104 2808.59459584 -4551.79214889 -1665.85253833 4204.56900238 1723.83484681 -5155.3632175 -1304.08241649 -3719.76440703 -1277.53833124 3493.61679282 1247.8994813 220.990026086 -120.637536751 1696.86259449 2155.09523599 -1820.88315301 -2436.49322294 -1336.59796623 318.311355959 110.614516628 516.456560978 -4444.28847666 -4800.77456322 -417.246642083 -239.449096998 -578.70241267 -1098.93425032 -571.956089295 956.261348365 430.050004379 -2781.99069662 -2348.05975947 -5028.86830875 -5.88966824341 108.303197516 -147.096501595 -27.7535771188 1175.31850739 3959.47384632 3588.85533022 4257.69455883 3592.10107086 -1394.4994035 -1303.87685509 5006.95443146 -4490.18936777 2275.91674854 692.693694258 -2564.36604759 -1334.00623069 -1914.10897834 1632.37401625 259.947820576 2972.65956424 1444.82951107 -2872.88327697 -1376.68431825 3680.79195843 -3380.43611132 2611.33027153 1195.85351775 -2775.34847577 -1392.47597984 1736.14202662 450.741037259 3123.73056873 1303.82550932 -2951.79380302 -1339.68450853 -109.668800584 223.598851171 -3312.97027033 -2910.98243375 3609.50266778 3263.3939602 4006.31049475 -4068.90139451 -2647.66540136 -4306.34429636 316.383746606 538.676576528 4512.5868476 2969.26854048 4701.03631125 4934.7115435 2752.72497291 -4497.24190736 -2386.28070158 140.010531364 414.218648687 1038.16733315 149.352156109 -92.7391272398 175.332705458 -36.353461516 -3484.18428993 -133.13280806 -488.49182098 -515.667572022 -196.073646785 -4110.39829547 -3494.03021302 1346.0180562 -1219.55102429 4237.78162113 1562.16733719 -3938.09060102 -2680.46532822 -3736.41745463 4625.17803464 1115.58957246 3663.00661159 1882.21059928 -3522.02168768 -1813.05910826 2938.59871071 -2756.30274442 4548.36436208 1667.70765435 -4185.14047829 -1717.45263481 5211.98505127 1317.99054439 3643.18429221 1245.52310391 -3481.40652824 -1252.99102637 -237.287838915 91.8634842655 -1673.84256219 -2134.88438259 1737.45049545 2357.75695406 1273.07052015 -283.407176582 -118.841374041 -507.766630052 4499.63309943 4824.65704408 368.915233905 201.265039058 526.66002123 1054.84489379 530.348306699 -927.945860114 -433.366102816 2792.24769542 2361.28987064 5101.22137105 -17.9868893417 -138.153189684 125.55351966 -2.38943201973 -1156.11576488 -4042.89514086 -3627.27339444 -4322.8867638 -3646.46186613 1355.91914076 1259.39208756 -4972.38402941 4431.48853998 -2391.46709011 -769.082593037 2507.8780066 1264.5785286 1873.80497437 -1717.70302 -318.892541955 -3054.69645659 -1513.10033649 2808.11462648 1308.87091734 -3699.19818558 3357.61956324 -2710.92589379 -1279.40744712 2687.80668662 1326.51848298 -1842.86754728 -528.424809358 -3178.49164599 -1362.61739206 2901.75389079 1284.89648879 76.7622759398 -240.326768245 3283.51158121 2877.56457976 -3575.05317754 -3268.241681 -3986.19562589 3995.43709596 2610.55730246 4243.09706715 -371.57881318 -588.511307609 -4501.94875235 -2970.50391843 -4685.68782272 -4922.88423168 -2757.37402082 4435.12686007 2349.86634504 -189.212815068 -470.702601242 -1098.1768351 -192.951013384 55.8045213496 -194.928330786 14.3531231872 3439.78695776 130.847758589 462.681808133 515.590885364 172.98920103 7965.942597 -148.326947762 388.145959286 4000.66572154 14372.4884706 132.797253445 141.445988893 9839.90210944 126.376669304 9919.64519421 -554.010021669 928.145588988 5400.07259089 4354.06963268 -63.6143844197 5382.9572224 -478.060508368 13932.9789812 -433.760182241 8810.73358437 1223.91972892 18619.9764734 10621.4360713 1438.04126802 4369.19648987 -2316.44769307 -941.189432867 -57.4784319933 2587.18520376 -2610.95140141 -3874.65366904 3037.70904476 11998.5781767 -3117.84474586 1404.13866464 272.091938624 3080.93864449 -12956.4437731 516.788766209 -401.746526194 -8601.8547879 -10042.8921487 -154.746038499 -1555.1647567 -3034.74757196 356.111517612 -11788.632327 521.572701564 1083.52595866 -8379.89190517 -13247.8723503 691.205343687 -8337.17626553 -894.63619127 -4772.55577458 166.610295045 -5093.7566299 374.171687581 -1146.19125795 -4220.22759978 -18325.2548109 -10411.9998637 59.0717749266 -2602.251065 2342.64955662 895.007420275 -3266.58786715 -12315.0849504 2697.98068306 4158.57072814 -192.037475857 -2889.86910457 3113.19365815 -1322.25732201 -8675.82530729 29.656149585 -548.905065426 -4275.57256544 -13608.3512809 -116.455320037 -49.0066797587 -9622.76082113 -239.188226458 -10508.0218974 411.276055404 -1093.27410366 -5573.10285289 -4859.57204807 24.8732971505 -5721.25955463 445.48488418 -13162.4499591 506.606999574 -8763.97981888 -965.120336689 -17088.5289676 -10562.2692444 -1493.07847695 -4350.64346671 2350.78889967 919.852529445 18.4821666845 -2595.15657288 2590.3486539 4298.992508 -3175.8405968 -12112.4495023 3170.60185046 -1250.5382669 -120.797237234 -2842.24358167 14651.8978829 -419.811502362 467.087621471 8663.98686643 8959.83444375 -28.9282540189 1372.59923417 2820.9149716 -462.836381322 11446.5872773 -556.69572233 -1113.47643904 8271.63414282 13104.816165 -696.726942448 8440.40098286 1055.04913425 4351.7428255 -254.260795142 4517.91079119 -585.967949759 1625.98207201 4500.00984547 18294.1200552 10612.822165 -104.725867554 2563.91033305 -2370.51687944 -973.434169775 3031.81103184 11706.9249388 -2673.20680012 -3985.54136998 137.127325494 2866.72048972 -3105.05376607 1418.87532123 -32.4177283958 -566.295473242 -8184.90464894 -3863.88072999 -247.386928694 -384.188133122 -13491.2178713 -9859.57653676 -327.333755714 361.586500575 -1206.42236954 -9215.12218781 -5535.12863751 -46.7763181461 -4245.7827572 357.247723078 -5516.15356462 311.060035375 -13874.6357765 -1471.0026325 -8943.3816208 -18594.2581537 -10833.476042 -1377.02952033 -4559.00479464 1755.1892351 347.65340877 -1.50584360759 -2592.07645517 2643.78982426 4143.98551813 -3746.86625485 -12271.505652 3059.38876407 -1492.87720955 -667.271200917 -3495.80050343 -117.417480289 780.849296967 14675.9155148 9104.76107525 306.889072234 1716.03883656 8770.66084891 2602.83640542 -215.967503798 -227.652108695 -826.319554125 11916.1832548 8512.36415355 -193.142213128 14308.020757 1519.6962479 9027.58423897 -216.523723288 4441.45517192 -320.789579542 4905.20897555 1832.99382759 4834.46527032 17987.6613135 10918.257864 340.600952199 2724.52094239 -1874.85972013 -486.533712388 3577.40575397 12449.3374315 -2484.85836875 -4112.41441039 750.177113778 3490.77513448 -2929.36647039 1469.43575238 28.3212477328 742.619412857 8201.82914674 4258.19866227 351.452271263 432.476482502 14661.9677942 10025.7718689 251.769755929 -304.376386431 1220.0352746 9883.47949027 5254.75804308 109.03827434 4534.57539191 -299.012388945 5507.26107862 -412.300386272 13602.6397018 1415.83250979 9025.94771774 18957.3664302 10921.1581746 1959.14635153 4705.39146229 -1814.61967584 -429.748972139 55.6389193168 2636.6428345 -2552.18195468 -3813.22067425 3773.7861482 12450.0544269 -2977.71273518 1588.54968246 484.444826645 3178.99264066 88.7952166363 -689.306367776 -14368.7104708 -9007.79750713 -350.328990612 -1791.32323474 -9424.58653952 -3178.89626483 89.351882683 295.37465713 888.218947472 -10850.3808236 -8191.83227245 176.088931001 -14306.7208449 -1591.23974798 -8931.92828847 176.814088661 -4486.9103247 478.864339599 -4470.86772657 -1690.69482902 -4668.29999323 -18818.9285354 -10786.269165 -326.768057867 -2682.55251668 1800.00485783 392.540636201 -3693.00392606 -12381.979348 2562.3530598 4004.28130385 -795.91764551 -3514.75589208 2871.41726684 -1572.76961928</DataArray>