<?xml version="1.0" ?>
<VTKFile byte_order="LittleEndian" type="PolyData" version="0.1">
  <PolyData>
    <Piece NumberOfPoints="416" NumberOfPolys="828">
      <Points>
        <DataArray NumberOfComponents="3" format="ascii" type="Float32">-1.92000001675e-07 0.0 -1.10000001996e-07 0.0 1.92000001675e-07 -1.10000001996e-07 1.92000001675e-07 0.0 -1.10000001996e-07 0.0 -1.92000001675e-07 -1.10000001996e-07 -2.41999998707e-07 0.0 -5.9999997859e-08 0.0 2.41999998707e-07 -5.9999997859e-08 2.41999998707e-07 0.0 -5.9999997859e-08 0.0 -2.41999998707e-07 -5.9999997859e-08 -2.41999998707e-07 0.0 5.9999997859e-08 0.0 2.41999998707e-07 5.9999997859e-08 2.41999998707e-07 0.0 5.9999997859e-08 0.0 -2.41999998707e-07 5.9999997859e-08 -1.92000001675e-07 0.0 1.10000001996e-07 0.0 1.92000001675e-07 1.10000001996e-07 1.92000001675e-07 0.0 1.10000001996e-07 0.0 -1.92000001675e-07 1.10000001996e-07 -1.87186159906e-07 4.27240181011e-08 -1.10000001996e-07 -1.72986020175e-07 8.33056787997e-08 -1.10000001996e-07 -1.5011164578e-07 1.19710037438e-07 -1.10000001996e-07 -1.19710037438e-07 1.5011164578e-07 -1.10000001996e-07 -8.33056787997e-08 1.72986020175e-07 -1.10000001996e-07 -4.27240181011e-08 1.87186159906e-07 -1.10000001996e-07 4.27240181011e-08 1.87186159906e-07 -1.10000001996e-07 8.33056787997e-08 1.72986020175e-07 -1.10000001996e-07 1.19710037438e-07 1.5011164578e-07 -1.10000001996e-07 1.5011164578e-07 1.19710037438e-07 -1.10000001996e-07 1.72986020175e-07 8.33056787997e-08 -1.10000001996e-07 1.87186159906e-07 4.27240181011e-08 -1.10000001996e-07 1.87186159906e-07 -4.27240181011e-08 -1.10000001996e-07 1.72986020175e-07 -8.33056787997e-08 -1.10000001996e-07 1.5011164578e-07 -1.19710037438e-07 -1.10000001996e-07 1.19710037438e-07 -1.5011164578e-07 -1.10000001996e-07 8.33056787997e-08 -1.72986020175e-07 -1.10000001996e-07 4.27240181011e-08 -1.87186159906e-07 -1.10000001996e-07 -4.27240181011e-08 -1.87186159906e-07 -1.10000001996e-07 -8.33056787997e-08 -1.72986020175e-07 -1.10000001996e-07 -1.19710037438e-07 -1.5011164578e-07 -1.10000001996e-07 -1.5011164578e-07 -1.19710037438e-07 -1.10000001996e-07 -1.72986020175e-07 -8.33056787997e-08 -1.10000001996e-07 -1.87186159906e-07 -4.27240181011e-08 -1.10000001996e-07 -2.37350036514e-07 4.72118593109e-08 -5.9999997859e-08 -2.23578851433e-07 9.26093903786e-08 -5.9999997859e-08 -2.01215641482e-07 1.34448001177e-07 -5.9999997859e-08 -1.71119836523e-07 1.71119836523e-07 -5.9999997859e-08 -1.34448001177e-07 2.01215641482e-07 -5.9999997859e-08 -9.26093903786e-08 2.23578851433e-07 -5.9999997859e-08 -4.72118593109e-08 2.37350036514e-07 -5.9999997859e-08 4.72118593109e-08 2.37350036514e-07 -5.9999997859e-08 9.26093903786e-08 2.23578851433e-07 -5.9999997859e-08 1.34448001177e-07 2.01215641482e-07 -5.9999997859e-08 1.71119836523e-07 1.71119836523e-07 -5.9999997859e-08 2.01215641482e-07 1.34448001177e-07 -5.9999997859e-08 2.23578851433e-07 9.26093903786e-08 -5.9999997859e-08 2.37350036514e-07 4.72118593109e-08 -5.9999997859e-08 2.37350036514e-07 -4.72118593109e-08 -5.9999997859e-08 2.23578851433e-07 -9.26093903786e-08 -5.9999997859e-08 2.01215641482e-07 -1.34448001177e-07 -5.9999997859e-08 1.71119836523e-07 -1.71119836523e-07 -5.9999997859e-08 1.34448001177e-07 -2.01215641482e-07 -5.9999997859e-08 9.26093903786e-08 -2.23578851433e-07 -5.9999997859e-08 4.72118593109e-08 -2.37350036514e-07 -5.9999997859e-08 -4.72118593109e-08 -2.37350036514e-07 -5.9999997859e-08 -9.26093903786e-08 -2.23578851433e-07 -5.9999997859e-08 -1.34448001177e-07 -2.01215641482e-07 -5.9999997859e-08 -1.71119836523e-07 -1.71119836523e-07 -5.9999997859e-08 -2.01215641482e-07 -1.34448001177e-07 -5.9999997859e-08 -2.23578851433e-07 -9.26093903786e-08 -5.9999997859e-08 -2.37350036514e-07 -4.72118593109e-08 -5.9999997859e-08 -2.37350036514e-07 4.72118593109e-08 5.9999997859e-08 -2.23578851433e-07 9.26093903786e-08 5.9999997859e-08 -2.01215641482e-07 1.34448001177e-07 5.9999997859e-08 -1.71119836523e-07 1.71119836523e-07 5.9999997859e-08 -1.34448001177e-07 2.01215641482e-07 5.9999997859e-08 -9.26093903786e-08 2.23578851433e-07 5.9999997859e-08 -4.72118593109e-08 2.37350036514e-07 5.9999997859e-08 4.72118593109e-08 2.37350036514e-07 5.9999997859e-08 9.26093903786e-08 2.23578851433e-07 5.9999997859e-08 1.34448001177e-07 2.01215641482e-07 5.9999997859e-08 1.71119836523e-07 1.71119836523e-07 5.9999997859e-08 2.01215641482e-07 1.34448001177e-07 5.9999997859e-08 2.23578851433e-07 9.26093903786e-08 5.9999997859e-08 2.37350036514e-07 4.72118593109e-08 5.9999997859e-08 2.37350036514e-07 -4.72118593109e-08 5.9999997859e-08 2.23578851433e-07 -9.26093903786e-08 5.9999997859e-08 2.01215641482e-07 -1.34448001177e-07 5.9999997859e-08 1.71119836523e-07 -1.71119836523e-07 5.9999997859e-08 1.34448001177e-07 -2.01215641482e-07 5.9999997859e-08 9.26093903786e-08 -2.23578851433e-07 5.9999997859e-08 4.72118593109e-08 -2.37350036514e-07 5.9999997859e-08 -4.72118593109e-08 -2.37350036514e-07 5.9999997859e-08 -9.26093903786e-08 -2.23578851433e-07 5.9999997859e-08 -1.34448001177e-07 -2.01215641482e-07 5.9999997859e-08 -1.71119836523e-07 -1.71119836523e-07 5.9999997859e-08 -2.01215641482e-07 -1.34448001177e-07 5.9999997859e-08 -2.23578851433e-07 -9.26093903786e-08 5.9999997859e-08 -2.37350036514e-07 -4.72118593109e-08 5.9999997859e-08 -1.87186159906e-07 4.27240181011e-08 1.10000001996e-07 -1.72986020175e-07 8.33056787997e-08 1.10000001996e-07 -1.5011164578e-07 1.19710037438e-07 1.10000001996e-07 -1.19710037438e-07 1.5011164578e-07 1.10000001996e-07 -8.33056787997e-08 1.72986020175e-07 1.10000001996e-07 -4.27240181011e-08 1.87186159906e-07 1.10000001996e-07 4.27240181011e-08 1.87186159906e-07 1.10000001996e-07 8.33056787997e-08 1.72986020175e-07 1.10000001996e-07 1.19710037438e-07 1.5011164578e-07 1.10000001996e-07 1.5011164578e-07 1.19710037438e-07 1.10000001996e-07 1.72986020175e-07 8.33056787997e-08 1.10000001996e-07 1.87186159906e-07 4.27240181011e-08 1.10000001996e-07 1.87186159906e-07 -4.27240181011e-08 1.10000001996e-07 1.72986020175e-07 -8.33056787997e-08 1.10000001996e-07 1.5011164578e-07 -1.19710037438e-07 1.10000001996e-07 1.19710037438e-07 -1.5011164578e-07 1.10000001996e-07 8.33056787997e-08 -1.72986020175e-07 1.10000001996e-07 4.27240181011e-08 -1.87186159906e-07 1.10000001996e-07 -4.27240181011e-08 -1.87186159906e-07 1.10000001996e-07 -8.33056787997e-08 -1.72986020175e-07 1.10000001996e-07 -1.19710037438e-07 -1.5011164578e-07 1.10000001996e-07 -1.5011164578e-07 -1.19710037438e-07 1.10000001996e-07 -1.72986020175e-07 -8.33056787997e-08 1.10000001996e-07 -1.87186159906e-07 -4.27240181011e-08 1.10000001996e-07 -2.27355343441e-07 0.0 -9.53553396243e-08 0.0 2.27355343441e-07 -9.53553396243e-08 2.27355343441e-07 0.0 -9.53553396243e-08 0.0 -2.27355343441e-07 -9.53553396243e-08 -2.27355343441e-07 0.0 9.53553396243e-08 0.0 2.27355343441e-07 9.53553396243e-08 2.27355343441e-07 0.0 9.53553396243e-08 0.0 -2.27355343441e-07 9.53553396243e-08 -2.41999998707e-07 0.0 -1.99999998785e-08 -2.41999998707e-07 0.0 1.99999998785e-08 0.0 2.41999998707e-07 -1.99999998785e-08 0.0 2.41999998707e-07 1.99999998785e-08 2.41999998707e-07 0.0 -1.99999998785e-08 2.41999998707e-07 0.0 1.99999998785e-08 0.0 -2.41999998707e-07 -1.99999998785e-08 0.0 -2.41999998707e-07 1.99999998785e-08 4.26537312137e-08 -1.26742323303e-08 -1.10000001996e-07 -3.13025090293e-08 5.22174747886e-09 -1.10000001996e-07 4.51158186365e-08 -1.21074222648e-07 -1.10000001996e-07 1.10048581803e-07 -5.68393190292e-08 -1.10000001996e-07 1.43824109955e-07 -1.60426356643e-08 -1.10000001996e-07 -1.03375548122e-07 -5.00856067731e-08 -1.10000001996e-07 1.07740646627e-07 4.86373323838e-08 -1.10000001996e-07 -6.44505817604e-08 9.20432086104e-08 -1.10000001996e-07 -1.9646448024e-08 -1.5119783825e-07 -1.10000001996e-07 -3.1094391062e-08 7.53365867467e-08 -1.10000001996e-07 8.99713938907e-08 -1.17641869579e-08 -1.10000001996e-07 2.54627998686e-08 -8.53002433132e-08 -1.10000001996e-07 -1.47819122276e-07 4.56858266773e-08 -1.10000001996e-07 6.87775383312e-08 -8.28844619605e-08 -1.10000001996e-07 1.14432793907e-07 -1.05964886643e-07 -1.10000001996e-07 1.83192909731e-08 -1.56162911935e-07 -1.10000001996e-07 -1.4522946401e-07 -7.10712910745e-08 -1.10000001996e-07 8.43416003704e-08 -1.31638913103e-07 -1.10000001996e-07 1.50971104063e-07 -5.55669501523e-08 -1.10000001996e-07 1.4006778315e-07 -8.46402983257e-08 -1.10000001996e-07 2.77657701275e-08 5.83680659361e-08 -1.10000001996e-07 -1.13841025495e-08 3.95316241963e-08 -1.10000001996e-07 -2.5527844727e-08 -3.6663028169e-08 -1.10000001996e-07 6.75717046761e-08 7.15373289495e-08 -1.10000001996e-07 6.76825635537e-08 2.88133108484e-08 -1.10000001996e-07 -5.4850197273e-08 -1.45941115193e-07 -1.10000001996e-07 -1.03979658661e-07 -9.853016536e-08 -1.10000001996e-07 5.08402244748e-08 1.40922693959e-07 -1.10000001996e-07 -5.83726880166e-08 -6.62671695295e-08 -1.10000001996e-07 -6.30533278922e-08 -2.61693529069e-08 -1.10000001996e-07 -1.09679717752e-07 9.96423494826e-08 -1.10000001996e-07 1.65985492018e-09 -4.21536716644e-09 -1.10000001996e-07 1.12365846405e-07 1.66997846662e-08 -1.10000001996e-07 1.18717061071e-07 8.21581735977e-08 -1.10000001996e-07 -1.88047906136e-08 -8.31586604022e-08 -1.10000001996e-07 -5.26660990374e-08 4.33633786656e-08 -1.10000001996e-07 -1.03003756635e-07 5.24155083781e-08 -1.10000001996e-07 4.8536299424e-09 -1.21464765357e-07 -1.10000001996e-07 4.18306811412e-08 -5.10556930067e-08 -1.10000001996e-07 -1.21814863974e-07 1.17724860971e-08 -1.10000001996e-07 -3.6725666952e-09 8.8919811958e-08 -1.10000001996e-07 -4.74581760557e-08 1.39963418633e-07 -1.10000001996e-07 -1.36349299851e-07 -2.71714615252e-08 -1.10000001996e-07 5.47612835078e-08 -1.53809651238e-07 -1.10000001996e-07 -7.69369847831e-08 1.16851452958e-08 -1.10000001996e-07 -1.00933576164e-07 -1.63342157578e-08 -1.10000001996e-07 -1.83009685184e-09 1.28936505916e-07 -1.10000001996e-07 -1.37070188089e-07 7.94280978766e-08 -1.10000001996e-07 -8.52412256336e-08 1.30480003691e-07 -1.10000001996e-07 3.14172901028e-08 9
[...]
      <CellData>
        <DataArray Name="rho_m_real" format="ascii" type="Float32">85498.6533307 215343.449592 826240.636495 412187.800877 579543.250607 594830.782527 250866.608288 500699.026277 737286.428024 136856.422445 298439.979902 204879.165754 294771.87271 349033.092738 606483.302148 567485.421679 628788.460037 -184556.324236 300728.302415 446233.201558 423807.080211 733631.493303 248021.106559 -13657.4198493 429471.200351 453252.586044 224694.269822 120522.934666 -156421.615083 -258587.859024 -123321.61764 -350682.011857 -575478.432703 -603004.376047 205335.821099 621149.993914 798643.743316 35480.3106069 245151.798139 570621.453318 712953.684478 -438440.992827 -547840.651564 -687097.282704 -649650.134311 464231.060465 467073.170633 114959.493142 -268848.969004 555960.823583 767414.217513 689651.374126 -579362.172074 -417292.455733 436730.163949 560386.332781 -585809.981037 -332910.372172 -524810.744494 880830.023871 869808.659536 865212.179214 877034.011549 -225899.856471 -667174.836933 31474.8805691 -561254.308859 -339121.023512 -277097.496289 -434612.785897 -363911.756056 -932715.860637 -856125.52665 -473352.81401 -448766.895517 -865581.0468 -902187.579318 492989.466942 637911.002015 567971.724404 -232086.196363 -486226.10908 -27335.508572 914079.618565 832803.409932 676212.762377 -134944.508312 -430880.99153 812432.781514 -800536.704333 732874.865559 744577.163185 -885717.102164 -151899.207275 -295400.81171 -227005.915388 -377746.130257 -731954.808108 -813562.874318 -782306.18686 661164.511189 789432.981858 859649.762741 873464.494197 -134205.508037 -94780.6534786 -25913.7869103 -486314.775552 -665554.476935 -545768.181784 -845350.248785 -762984.052067 -818340.602295 -690374.838436 -30583.3090248 -198411.375675 -645047.830902 -628485.78681 -309487.234268 -456564.295926 713867.759711 254365.523341 346260.038251 360307.77155 238012.415683 439100.606103 752547.809877 588156.252945 637596.187492 286992.295641 268034.271657 78555.4273955 301104.114753 566423.883347 577498.2035 -493483.59567 -620944.943807 -728646.067027 25722.6297412 -103268.706471 -26314.7451482 -134833.171981 9621.0487029 88017.089859 -700943.306158 -848637.238545 -587450.651138 -716335.228668 -803085.794032 -844992.250324 -591745.241214 -707878.104718 -580872.88602 -600571.012969 -413031.856371 -666423.419163 306720.392269 -738114.691231 -89646.7328562 -518407.178621 -589777.545472 604910.996146 -864286.358413 -858507.08632 770045.357482 -768511.302384 495886.231306 -541462.647848 -668078.434083 673726.502961 -404726.060745 518199.24222 599234.327796 -413526.795053 1350.02087156 -300664.267372 -70130.8968317 603873.214559 -675318.083207 -340738.256359 -768367.698854 277113.864234 -141957.196558 456175.48999 104065.16046 -311429.946718 430004.216154 450924.397335 -266846.3013 -422078.133037 -903224.906038 -895257.770932 -208575.12499 424094.790307 189701.194907 -69993.08675 87619.296877 333115.002546 315561.756629 158985.891221 441289.761691 177892.468857 350280.184024 442739.789528 481705.98637 839402.203971 656393.795019 769996.503253 -590738.796469 -769473.569104 -553582.06614 -654985.325763 214514.803294 444804.815674 829271.401942 -256734.206375 -474239.368925 -195765.552471 34974.7352002 -113425.486869 -259721.319164 -288474.12335 -89068.4346666 -225029.971659 712925.935523 303406.957103 72702.5677751 342359.345313 -330157.739607 -440054.020903 76509.61383 -24661.0737853 -35857.4301152 555942.577016 -579425.327621 -574546.2013 -900633.900597 -802290.95793 231283.953876 423092.636559 -860197.940796 -808871.75996 -883235.495456 -793469.212299 540405.360025 671351.397041 -245500.637883 -442427.733635 -331709.297533 -185730.899638 -692108.324912 -611097.954196 -537026.217801 -550750.6121 857145.915333 -207857.111608 -327886.983346 -690463.86979 -591728.290651 771469.073569 664501.221035 649877.487472 -456720.462688 -458474.331372 -473222.012552 -621836.172414 499154.904349 597057.761783 539108.922082 604409.004581 731880.971299 -607818.773989 -733683.081552 918407.718875 830973.047761 828227.136311 899840.248972 48602.7777199 170201.905929 243826.853215 608062.994528 614878.98461 470500.161766 155173.098253 259584.16592 197964.774784 305732.563324 309489.028496 -63363.3403186 453.368871189 -175026.291899 304470.193887 154867.306356 125462.340918 689169.38983 768702.790107 558644.688923 681245.882286 533938.765634 534761.60132 28024.1120992 11697.2014364 -5368.75718482 -5792.65596494 9199.83997754 58603.3052039 9218.30562045 64882.8036035 7155.95495136 -13560.0095098 39441.0776685 15211.9361932 67594.7159458 8341.05655328 63609.9152684 -17606.555719 -16450.7243008 33968.4510955 62655.0752921 28012.1072601 60589.3784012 34462.9689582 48464.8513379 52497.1213086 53429.9799442 51840.832526 51611.7562469 -18069.9120999 55292.3653848 13307.6230944 56441.4851871 13614.1872128 57611.1989735 24271.7765269 -35095.3788548 40650.3547654 4056.43462909 -5277.87865688 2477.05620722 -36108.5382375 43424.9914011 5044.55621682 10727.3367216 44322.5461416 10865.1505819 44651.9936405 20846.4304562 2014.19642387 14788.0675515 69121.4730144 66004.9520742 75484.8273868 61846.117376 22126.2866158 -11146.3492613 27111.7840132 1152.19560662 -29480.3950383 -13155.8645737 24300.7248095 -35541.510746 -31158.8100842 -2359.30831558 66913.7295887 -13550.2376084 51683.4597894 39919.5874028 -9898.29306154 59960.5098216 -1249.25571602 69482.2769344 2337.78216717 67919.5136042 37554.5198917 35772.7496778 16672.0698535 55125.5054159 20376.3889983 53072.8799521 2807.5663954 56011.6349493 21205.7305892 81025.5120499 19617.4322728 79814.0585616 52154.3336245 -10620.3046703 27454.1095293 24543.956308 27072.2575233 28324.0288442 65963.9628046 -12096.3218922 11086.6490824 6328.70906572 -33035.9499685 2472.09843847 -7981.69040989 4284.23072617 7867.03572675 21877.4906669 -575.142107149 23511.0771982 -940.736409173 44186.2071874 49250.8986943 -896.081890271 103383.900645 76091.082238 8138.69489026 41298.5739097 66214.712416 -49916.9013373 38361.8086902 8215.9061252 25957.8441046 -27806.2629848 -11437.9634711 6194.7391917 5379.97390038 -8446.60292556 -58335.4072316 -9979.56709745 -64583.1873692 -7086.27632049 13937.6167182 -39105.544339 -14824.4364658 -67344.4409892 -8956.20821703 -63548.8471114 17982.6505696 15305.5731804 -33416.63462 -62317.419288 -28197.7981056 -60312.7420277 -33875.6168517 -48035.8534612 -52280.5015256 -53148.1362568 -52159.6244033 -51525.8101852 18218.3353307 -55584.8942432 -13774.615942 -56683.4039766 -12962.013554 -57537.1648016 -24261.8580165 34857.562431 -40972.7173202 -4350.11602499 5664.78902412 -1971.98316842 36190.944673 -43647.0344906 -5261.67721688 -10889.4388589 -44589.0152575 -11222.5292873 -44913.6915412 -20604.7781882 -1589.11308603 -14355.1086017 -69033.8208651 -66009.5376871 -75731.0228854 -62191.0143112 -22367.0116298 10962.1753215 -27018.4115142 -1383.06934716 29750.0541318 12683.3027126 -24755.1182731 34492.4016089 31106.3438619 2073.00421169 -67266.7523032 15003.1935471 -52161.6293517 -40555.4527486 8824.5869889 -60241.834173 1501.47275879 -69723.5019373 -1291.62787687 -68168.3974695 -37291.8032421 -34954.2619648 -16686.5157785 -55615.154853 -20375.3087052 -53763.2230482 -3360.73492539 -56308.6586055 -21426.3058889 -81421.4181878 -19639.5105795 -80355.7820785 -52492.1809733 10669.405942 -28122.2123855 -24815.3724847 -26966.2011184 -28664.083909 -66275.3940601 11766.5175963 -11040.9451467 -6606.65393236 32714.9375598 -2659.09018612 7925.36250786 -4288.06439035 -7454.90789168 -21885.9130624 741.472026745 -23561.5448502 618.603309124 -44540.5515699 -49581.1000234 545.777404069 -103647.064064 -76565.3743744 -8261.54561093 -41492.1578933 -66637.406371 49567.8657842 -38684.7875623 -8430.91731108 -26448.8954226 -383179.540474 -130387.314015 -165623.797228 -262375.123444 -226427.199639 -49479.2634529 -66355.9492149 -223273.784626 -66944.4168664 -293575.281942 -74959.4069548 -118828.212795 -204301.869659 -415092.506899 -125832.063887 -321436.724177 -183148.291933 -141074.640751 -29975.5842096 -130721.874515 -64744.7536655 -83412.1415194 -3712.90388628 -456273.673218 -377191.682303 -10532.995975 31329.4653213 -105451.38554 -166504.869726 -258070.990871 -351557.3915 -34443.3886673 -101038.883294 -155845.296437 -260737.126966 -77634.5170729 -39138.6753683 -210756.852 -55157.0482787 -82957.2436025 -204326.474609 -391105.340362 -110924.593706 -154975.100886 -254005.755065 -77620.2967452 -296771.315706 -70563.9994758 -89924.3221296 -254367.572856 -144165.849862 -28839.9793181 -132782.018178 -68605.507712 -404032.915656 -122127.836421 -319026.900412 -180111.457514 -452817.222334 -379296.937629 -56342.256597 1322.83841092 -105199.211838 -166077.214849 -12509.9590485 29687.7226647 -42141.387771 -110493.961319 -257395.516741 -352756.852491 -76566.7453323 -37233.7747381 -158490.824683 -262787.855606 377632.422254 131160.790216 165018.531577 263338.156462 217036.628724 49465.9876027 66908.9979151 224611.41259 67669.2719127 291789.183928 75926.5356347 119995.873771 204378.24465 405600.316747 125451.794005 327075.356894 180685.602921 130812.208575 31038.6775551 131751.046252 65909.6454186 82680.5684433 9789.27604032 452794.508844 378922.279901 11477.3382972 -30405.8977104 105982.475565 166004.198765 260947.53893 350397.735051 29807.6889067 104791.598794 153831.460456 262671.67477 78949.0448102 39351.4893105 236471.740954 54097.7265787 80311.6699842 194160.468745 381207.137097 109433.045439 153117.879741 258556.714221 77890.7894551 310260.424443 70693.0597931 87687.0844189 257585.784639 124703.253966 30002.0521505 137506.400319 67665.5805075 409464.640534 122515.255425 311458.293114 182055.78382 456597.738296 376192.200011 86506.2844903 7160.31648937 104556.151281 165836.900661 11931.5059791 -29297.5159858 33070.4372442 100393.91974 258104.565509 357558.928281 79218.5263232 41650.9172603 159055.484239 262113.227143 -131616.338148 -166414.092332 -385345.975088 -260295.970473 -45977.3328865 -65160.8534837 -213338.55976 -224719.246586 -66842.5970066 -73740.1662377 -118574.027434 -277267.299073 -207968.671854 -125228.021408 -418330.654646 -182534.242318 -321204.350446 -26658.5398963 -127892.471207 -67580.0382556 -131484.393012 -73967.8332921 -6387.20830736 -468324.907056 -376025.178374 -9810.03644145 29548.6149893 -104508.35486 -164796.224424 -259719.818564 -353677.104518 -36841.1351884 -100038.846626 -155023.99408 -260265.610909 -72211.6994011 -41657.202425 -53010.9119018 -81192.2140166 -228597.568009 -200375.580496 -109498.956154 -158040.442221 -381113.754623 -253217.074937 -73268.8734375 -71367.2892674 -94047.6352087 -303211.066373 -249205.14739 -30854.3044473 -117524.423513 -68453.2725996 -140599.780022 -131318.975825 -405670.506866 -180797.879663 -318796.38096 -481374.139946 -375358.017668 -56548.2849875 -12450.6466933 -107823.064411 -160560.27983 -12846.6418394 30039.0451018 -31527.2827237 -101030.846886 -260368.545932 -350100.140959 -78443.7320327 -48430.2351017 -165111.522233 -257757.485359 130186.878962 166836.034997 376413.394688 264879.697835 46897.2872353 67263.2203304 211269.942294 222928.458424 65088.6240354 74151.6750085 121100.912696 286866.280325 201660.435987 125451.386688 417811.821985 182878.442472 319217.996966 25521.4730655 129258.079118 69065.1051833 126433.546051 75231.41857 1692.21693714 459713.522461 376021.54429 9873.93446257 -28908.6168017 103973.144913 164665.175898 260611.573125 353382.659863 39217.5516347 109112.551324 154913.895505 260948.97295 72655.0717319 37009.0443164 54730.2783471 81300.1523049 212923.76422 199856.222071 108213.736169 152016.511743 383046.376195 261908.465738 75227.0027651 69701.9155168 88576.9706173 302289.280648 255939.432007 29121.9926556 130369.243172 69423.2026377 134707.422075 132207.912072 410747.300289 179385.654563 308992.984634 465526.499158 376018.642638 66193.0139287 6211.66223147 107243.297699 160838.394666 12915.6113764 -29119.9973963 33940.0848181 105665.190954 260483.849301 357543.291696 78282.2452292 41703.6374057 165579.988472 257081.871335</DataArray>