<?xml version="1.0" ?>
<VTKFile byte_order="LittleEndian" type="PolyData" version="0.1">
  <PolyData>
    <Piece NumberOfPoints="416" NumberOfPolys="828">
      <Points>
        <DataArray NumberOfComponents="3" format="ascii" type="Float32">-1.92000001675e-07 0.0 -1.10000001996e-07 0.0 1.92000001675e-07 -1.10000001996e-07 1.92000001675e-07 0.0 -1.10000001996e-07 0.0 -1.92000001675e-07 -1.10000001996e-07 -2.41999998707e-07 0.0 -5.9999997859e-08 0.0 2.41999998707e-07 -5.9999997859e-08 2.41999998707e-07 0.0 -5.9999997859e-08 0.0 -2.41999998707e-07 -5.9999997859e-08 -2.41999998707e-07 0.0 5.9999997859e-08 0.0 2.41999998707e-07 5.9999997859e-08 2.41999998707e-07 0.0 5.9999997859e-08 0.0 -2.41999998707e-07 5.9999997859e-08 -1.92000001675e-07 0.0 1.10000001996e-07 0.0 1.92000001675e-07 1.10000001996e-07 1.92000001675e-07 0.0 1.10000001996e-07 0.0 -1.92000001675e-07 1.10000001996e-07 -1.87186159906e-07 4.27240181011e-08 -1.10000001996e-07 -1.72986020175e-07 8.33056787997e-08 -1.10000001996e-07 -1.5011164578e-07 1.19710037438e-07 -1.10000001996e-07 -1.19710037438e-07 1.5011164578e-07 -1.10000001996e-07 -8.33056787997e-08 1.72986020175e-07 -1.10000001996e-07 -4.27240181011e-08 1.87186159906e-07 -1.10000001996e-07 4.27240181011e-08 1.87186159906e-07 -1.10000001996e-07 8.33056787997e-08 1.72986020175e-07 -1.10000001996e-07 1.19710037438e-07 1.5011164578e-07 -1.10000001996e-07 1.5011164578e-07 1.19710037438e-07 -1.10000001996e-07 1.72986020175e-07 8.33056787997e-08 -1.10000001996e-07 1.87186159906e-07 4.27240181011e-08 -1.10000001996e-07 1.87186159906e-07 -4.27240181011e-08 -1.10000001996e-07 1.72986020175e-07 -8.33056787997e-08 -1.10000001996e-07 1.5011164578e-07 -1.19710037438e-07 -1.10000001996e-07 1.19710037438e-07 -1.5011164578e-07 -1.10000001996e-07 8.33056787997e-08 -1.72986020175e-07 -1.10000001996e-07 4.27240181011e-08 -1.87186159906e-07 -1.10000001996e-07 -4.27240181011e-08 -1.87186159906e-07 -1.10000001996e-07 -8.33056787997e-08 -1.72986020175e-07 -1.10000001996e-07 -1.19710037438e-07 -1.5011164578e-07 -1.10000001996e-07 -1.5011164578e-07 -1.19710037438e-07 -1.10000001996e-07 -1.72986020175e-07 -8.33056787997e-08 -1.10000001996e-07 -1.87186159906e-07 -4.27240181011e-08 -1.10000001996e-07 -2.37350036514e-07 4.72118593109e-08 -5.9999997859e-08 -2.23578851433e-07 9.26093903786e-08 -5.9999997859e-08 -2.01215641482e-07 1.34448001177e-07 -5.9999997859e-08 -1.71119836523e-07 1.71119836523e-07 -5.9999997859e-08 -1.34448001177e-07 2.01215641482e-07 -5.9999997859e-08 -9.26093903786e-08 2.23578851433e-07 -5.9999997859e-08 -4.72118593109e-08 2.37350036514e-07 -5.9999997859e-08 4.72118593109e-08 2.37350036514e-07 -5.9999997859e-08 9.26093903786e-08 2.23578851433e-07 -5.9999997859e-08 1.34448001177e-07 2.01215641482e-07 -5.9999997859e-08 1.71119836523e-07 1.71119836523e-07 -5.9999997859e-08 2.01215641482e-07 1.34448001177e-07 -5.9999997859e-08 2.23578851433e-07 9.26093903786e-08 -5.9999997859e-08 2.37350036514e-07 4.72118593109e-08 -5.9999997859e-08 2.37350036514e-07 -4.72118593109e-08 -5.9999997859e-08 2.23578851433e-07 -9.26093903786e-08 -5.9999997859e-08 2.01215641482e-07 -1.34448001177e-07 -5.9999997859e-08 1.71119836523e-07 -1.71119836523e-07 -5.9999997859e-08 1.34448001177e-07 -2.01215641482e-07 -5.9999997859e-08 9.26093903786e-08 -2.23578851433e-07 -5.9999997859e-08 4.72118593109e-08 -2.37350036514e-07 -5.9999997859e-08 -4.72118593109e-08 -2.37350036514e-07 -5.9999997859e-08 -9.26093903786e-08 -2.23578851433e-07 -5.9999997859e-08 -1.34448001177e-07 -2.01215641482e-07 -5.9999997859e-08 -1.71119836523e-07 -1.71119836523e-07 -5.9999997859e-08 -2.01215641482e-07 -1.34448001177e-07 -5.9999997859e-08 -2.23578851433e-07 -9.26093903786e-08 -5.9999997859e-08 -2.37350036514e-07 -4.72118593109e-08 -5.9999997859e-08 -2.37350036514e-07 4.72118593109e-08 5.9999997859e-08 -2.23578851433e-07 9.26093903786e-08 5.9999997859e-08 -2.01215641482e-07 1.34448001177e-07 5.9999997859e-08 -1.71119836523e-07 1.71119836523e-07 5.9999997859e-08 -1.34448001177e-07 2.01215641482e-07 5.9999997859e-08 -9.26093903786e-08 2.23578851433e-07 5.9999997859e-08 -4.72118593109e-08 2.37350036514e-07 5.9999997859e-08 4.72118593109e-08 2.37350036514e-07 5.9999997859e-08 9.26093903786e-08 2.23578851433e-07 5.9999997859e-08 1.34448001177e-07 2.01215641482e-07 5.9999997859e-08 1.71119836523e-07 1.71119836523e-07 5.9999997859e-08 2.01215641482e-07 1.34448001177e-07 5.9999997859e-08 2.23578851433e-07 9.26093903786e-08 5.9999997859e-08 2.37350036514e-07 4.72118593109e-08 5.9999997859e-08 2.37350036514e-07 -4.72118593109e-08 5.9999997859e-08 2.23578851433e-07 -9.26093903786e-08 5.9999997859e-08 2.01215641482e-07 -1.34448001177e-07 5.9999997859e-08 1.71119836523e-07 -1.71119836523e-07 5.9999997859e-08 1.34448001177e-07 -2.01215641482e-07 5.9999997859e-08 9.26093903786e-08 -2.23578851433e-07 5.9999997859e-08 4.72118593109e-08 -2.37350036514e-07 5.9999997859e-08 -4.72118593109e-08 -2.37350036514e-07 5.9999997859e-08 -9.26093903786e-08 -2.23578851433e-07 5.9999997859e-08 -1.34448001177e-07 -2.01215641482e-07 5.9999997859e-08 -1.71119836523e-07 -1.71119836523e-07 5.9999997859e-08 -2.01215641482e-07 -1.34448001177e-07 5.9999997859e-08 -2.23578851433e-07 -9.26093903786e-08 5.9999997859e-08 -2.37350036514e-07 -4.72118593109e-08 5.9999997859e-08 -1.87186159906e-07 4.27240181011e-08 1.10000001996e-07 -1.72986020175e-07 8.33056787997e-08 1.10000001996e-07 -1.5011164578e-07 1.19710037438e-07 1.10000001996e-07 -1.19710037438e-07 1.5011164578e-07 1.10000001996e-07 -8.33056787997e-08 1.72986020175e-07 1.10000001996e-07 -4.27240181011e-08 1.87186159906e-07 1.10000001996e-07 4.27240181011e-08 1.87186159906e-07 1.10000001996e-07 8.33056787997e-08 1.72986020175e-07 1.10000001996e-07 1.19710037438e-07 1.5011164578e-07 1.10000001996e-07 1.5011164578e-07 1.19710037438e-07 1.10000001996e-07 1.72986020175e-07 8.33056787997e-08 1.10000001996e-07 1.87186159906e-07 4.27240181011e-08 1.10000001996e-07 1.87186159906e-07 -4.27240181011e-08 1.10000001996e-07 1.72986020175e-07 -8.33056787997e-08 1.10000001996e-07 1.5011164578e-07 -1.19710037438e-07 1.10000001996e-07 1.19710037438e-07 -1.5011164578e-07 1.10000001996e-07 8.33056787997e-08 -1.72986020175e-07 1.10000001996e-07 4.27240181011e-08 -1.87186159906e-07 1.10000001996e-07 -4.27240181011e-08 -1.87186159906e-07 1.10000001996e-07 -8.33056787997e-08 -1.72986020175e-07 1.10000001996e-07 -1.19710037438e-07 -1.5011164578e-07 1.10000001996e-07 -1.5011164578e-07 -1.19710037438e-07 1.10000001996e-07 -1.72986020175e-07 -8.33056787997e-08 1.10000001996e-07 -1.87186159906e-07 -4.27240181011e-08 1.10000001996e-07 -2.27355343441e-07 0.0 -9.53553396243e-08 0.0 2.27355343441e-07 -9.53553396243e-08 2.27355343441e-07 0.0 -9.53553396243e-08 0.0 -2.27355343441e-07 -9.53553396243e-08 -2.27355343441e-07 0.0 9.53553396243e-08 0.0 2.27355343441e-07 9.53553396243e-08 2.27355343441e-07 0.0 9.53553396243e-08 0.0 -2.27355343441e-07 9.53553396243e-08 -2.41999998707e-07 0.0 -1.99999998785e-08 -2.41999998707e-07 0.0 1.99999998785e-08 0.0 2.41999998707e-07 -1.99999998785e-08 0.0 2.41999998707e-07 1.99999998785e-08 2.41999998707e-07 0.0 -1.99999998785e-08 2.41999998707e-07 0.0 1.99999998785e-08 0.0 -2.41999998707e-07 -1.99999998785e-08 0.0 -2.41999998707e-07 1.99999998785e-08 4.26537312137e-08 -1.26742323303e-08 -1.10000001996e-07 -3.13025090293e-08 5.22174747886e-09 -1.10000001996e-07 4.51158186365e-08 -1.21074222648e-07 -1.10000001996e-07 1.10048581803e-07 -5.68393190292e-08 -1.10000001996e-07 1.43824109955e-07 -1.60426356643e-08 -1.10000001996e-07 -1.03375548122e-07 -5.00856067731e-08 -1.10000001996e-07 1.07740646627e-07 4.86373323838e-08 -1.10000001996e-07 -6.44505817604e-08 9.20432086104e-08 -1.10000001996e-07 -1.9646448024e-08 -1.5119783825e-07 -1.10000001996e-07 -3.1094391062e-08 7.53365867467e-08 -1.10000001996e-07 8.99713938907e-08 -1.17641869579e-08 -1.10000001996e-07 2.54627998686e-08 -8.53002433132e-08 -1.10000001996e-07 -1.47819122276e-07 4.56858266773e-08 -1.10000001996e-07 6.87775383312e-08 -8.28844619605e-08 -1.10000001996e-07 1.14432793907e-07 -1.05964886643e-07 -1.10000001996e-07 1.83192909731e-08 -1.56162911935e-07 -1.10000001996e-07 -1.4522946401e-07 -7.10712910745e-08 -1.10000001996e-07 8.43416003704e-08 -1.31638913103e-07 -1.10000001996e-07 1.50971104063e-07 -5.55669501523e-08 -1.10000001996e-07 1.4006778315e-07 -8.46402983257e-08 -1.10000001996e-07 2.77657701275e-08 5.83680659361e-08 -1.10000001996e-07 -1.13841025495e-08 3.95316241963e-08 -1.10000001996e-07 -2.5527844727e-08 -3.6663028169e-08 -1.10000001996e-07 6.75717046761e-08 7.15373289495e-08 -1.10000001996e-07 6.76825635537e-08 2.88133108484e-08 -1.10000001996e-07 -5.4850197273e-08 -1.45941115193e-07 -1.10000001996e-07 -1.03979658661e-07 -9.853016536e-08 -1.10000001996e-07 5.08402244748e-08 1.40922693959e-07 -1.10000001996e-07 -5.83726880166e-08 -6.62671695295e-08 -1.10000001996e-07 -6.30533278922e-08 -2.61693529069e-08 -1.10000001996e-07 -1.09679717752e-07 9.96423494826e-08 -1.10000001996e-07 1.65985492018e-09 -4.21536716644e-09 -1.10000001996e-07 1.12365846405e-07 1.66997846662e-08 -1.10000001996e-07 1.18717061071e-07 8.21581735977e-08 -1.10000001996e-07 -1.88047906136e-08 -8.31586604022e-08 -1.10000001996e-07 -5.26660990374e-08 4.33633786656e-08 -1.10000001996e-07 -1.03003756635e-07 5.24155083781e-08 -1.10000001996e-07 4.8536299424e-09 -1.21464765357e-07 -1.10000001996e-07 4.18306811412e-08 -5.10556930067e-08 -1.10000001996e-07 -1.21814863974e-07 1.17724860971e-08 -1.10000001996e-07 -3.6725666952e-09 8.8919811958e-08 -1.10000001996e-07 -4.74581760557e-08 1.39963418633e-07 -1.10000001996e-07 -1.36349299851e-07 -2.71714615252e-08 -1.10000001996e-07 5.47612835078e-08 -1.53809651238e-07 -1.10000001996e-07 -7.69369847831e-08 1.16851452958e-08 -1.10000001996e-07 -1.00933576164e-07 -1.63342157578e-08 -1.10000001996e-07 -1.83009685184e-09 1.28936505916e-07 -1.10000001996e-07 -1.37070188089e-07 7.94280978766e-08 -1.10000001996e-07 -8.52412256336e-08 1.30480003691e-07 -1.10000001996e-07 3.14172901028e-08 9
[...]
      <CellData>
        <DataArray Name="rho_m_real" format="ascii" type="Float32">42612.6087276 65342.0001673 -16099.5179687 98911.6897351 100139.684142 -96526.6085394 125996.338991 23951.8007855 9561.89267299 81316.3566697 104616.577897 109919.090574 132523.246811 124903.922594 -100011.672406 80354.1839481 70126.3413916 -104599.298039 124617.620572 127679.46881 132312.331723 -103538.435236 131764.135893 -2579.0387217 122560.775147 123782.74939 2447.84722886 -12270.317506 12427.1614137 -63735.8680412 -16917.0381241 3655.59541926 12060.3343385 -92819.9558637 103226.267539 -3182.35960141 -16839.1846167 3048.77005275 57477.4078979 -53284.6241725 -79639.3889853 -59038.5192002 -18326.5676666 54489.3462078 42493.2819392 50578.2594227 11502.7924708 13424.5228287 -86865.1551557 -48475.3027351 -63284.0971361 -78796.8531499 62447.8735584 -98705.8904942 91920.3387926 85228.0080042 50385.9016293 -131674.75938 -106713.060916 -111046.682719 -82311.0604215 -74950.3225495 -74021.8709021 -8774.75250193 250.642066565 4851.55859063 -54650.3528846 -48797.5360156 -125992.005026 -129309.104108 -123243.723715 86435.0632479 76747.1747142 -66802.98565 -110576.633599 78198.634293 88842.4743666 11399.8457855 -17122.3880326 69525.7854776 8620.35248352 22870.9370967 8032.41026313 -96886.7015738 -80009.2891463 36802.7800044 -9513.11056988 3501.31956663 -43887.789012 34945.9244837 -20977.9111666 53828.405261 56758.8321418 -106697.740747 -118705.459405 -88310.3920595 -119337.503423 21444.3011988 58425.4422731 -6514.181541 -21586.4208928 -21465.7944351 -89874.5666627 -55930.9257039 -67563.9905998 -40213.242745 -19437.722482 -29474.9279556 6540.42531294 -78579.7802655 12878.6951817 -5035.89316476 28422.0277965 -64394.980769 225.047439116 -51975.149468 -72072.0966559 -83958.5204384 -128894.996325 -131627.567746 3253.4650275 24136.586208 15579.9367026 -13877.3568822 -12412.3268384 -10167.5703456 -48793.0865927 -40224.2763988 -35574.2160957 108415.874525 77627.0002216 29495.3593955 62313.3698669 79247.3473596 32277.6280637 -37926.128618 11400.3324188 -9674.1248401 15163.6863265 -48829.6787382 -26508.4855436 -66157.8924162 26304.1507201 53657.9198548 81532.6417746 89312.7659682 101484.838718 77840.5933344 127439.462281 87635.3805535 94708.6677217 103545.891479 2646.08011309 5222.31816442 12673.3134371 15790.4995727 -22646.1534807 19368.4469425 8821.80147073 6543.32279632 17925.606115 -4955.99090677 7114.26812867 -8552.50408051 17108.6796175 -19911.2422942 24515.100488 -15246.5166296 -23840.8382725 21811.0350148 -7096.01915051 12835.0963889 21806.4351356 -19774.9109298 -1624.75507585 -15184.6683386 -2597.69842401 11878.4342182 832.014986268 -12727.0154107 -5559.04852773 15209.9861923 -7425.88226118 15150.4917924 429.45547101 -3014.12725823 -18259.5664365 -19161.5293179 25844.7894011 14350.3786279 9049.43024163 -9808.34760186 87.7944055707 -17654.2995749 -19902.4976232 126.56425772 -7998.75975143 -22577.1602235 -8877.39062617 -11350.5246899 -18220.805687 9194.33467012 10168.3390725 -2210.69246486 2467.52736239 5211.86727057 15700.6008991 5305.82807562 -22401.7190966 -19123.1431912 -2451.48807287 -8266.56340175 12885.8452745 19961.3482429 18223.58551 -12110.6551407 -24392.8432253 -10956.0265891 1266.84999451 -17.7588217767 -7433.90740117 -6992.29713092 -2153.90402892 989.879593916 2974.80144577 10914.0958806 3510.75905235 1923.53731396 23410.8172395 -201.72669595 -4683.57873546 2774.81417016 -1261.54201913 -7095.96697021 2337.76669984 8315.49112953 23464.0670733 10425.3229168 4747.63887462 4806.98764396 -5472.86733054 13832.1363487 20994.9982732 1757.8187025 -4011.63821179 -9357.81510384 16687.8650915 1449.66745477 708.513576781 11373.7943041 -20928.459412 -2027.71393412 -7432.8937318 -13252.6715028 -7987.67565093 18400.0124446 11583.9387375 13212.451478 4786.06865871 -22232.7563159 -7041.55830005 -2026.23022247 17317.6541369 18729.1809331 16233.5459758 15907.27541 -7857.51422257 -10924.2039593 -17686.1186933 -2655.17786604 -11378.839325 3486.12350803 18107.4194986 -20508.1632325 -2284.78832783 -23896.4879395 -1632.34317575 -4636.32978029 1597.3232682 -4325.16728121 1270.90529182 -12588.6973423 5695.80888002 -12636.8528597 -2516.93776695 -20618.1554816 -12803.0856679 274.500004134 5228.07383139 -923.582828664 5020.51386523 8724.06659196 99.990950166 1177.49410983 -9784.7013899 -20951.2450865 -11825.6347034 -15844.8042396 -13866.5435898 -19311.9324099 106298.083147 63551.9022815 47698.9576641 -60240.6028442 -129213.218539 -3847.98123579 147219.502197 81500.6868893 115366.151102 -97426.5873464 4982.32384034 -126907.574964 -22539.7708076 131857.049541 51532.3613776 -69871.1305055 77345.0513266 -125053.22658 -58985.9793677 146815.290107 83406.1464856 -117310.9225 -26125.2875349 -96804.2079035 -40303.972541 110169.566905 67993.7235304 5403.64492052 -11026.003629 7247.85159659 43916.0706905 -11529.9237067 -43136.6281458 38185.5671237 -108110.12897 -79004.5926254 -109912.788384 -38196.0114905 -9505.63932802 103214.04992 50985.232752 96844.9736542 88545.431806 39008.8396983 -102542.925709 -65099.2617499 -3900.92316447 -26849.4468324 -69752.542537 13106.2360179 4227.58927538 -15776.6098332 -7527.4740599 -45141.5126454 38038.9939895 16020.5297265 4058.82302287 44321.9861063 -66461.329476 -71404.8131206 -112123.671097 116768.935912 6844.58804798 -10225.1047441 -4812.87867144 -19465.651982 -28117.3403193 64857.2228237 -1060.97539822 -64939.3021364 -15648.6528549 65589.7882033 24140.2425181 -133496.795212 137696.813475 -23877.2482723 3977.13997299 26215.30564 17439.6636182 53368.3618078 18173.2964994 -68302.2363809 -31348.4787749 79364.5481344 48593.2629419 -27959.0797688 4759.02302819 116621.134137 89028.0678451 -104026.641095 -67429.4922025 -77100.0207256 52351.0280182 19435.3840703 22766.0885366 106028.474573 102660.631758 -50318.6218714 -11560.4558768 -17685.3390331 -68726.6779481 -36322.9813031 81467.2698874 51116.9499075 43141.8560567 30641.0531761 104622.539324 11998.55843 13595.8712794 10886.6359604 13110.962327 99927.8285807 -122765.53783 -100579.005546 -110673.815872 -88943.2340115 -106064.536182 -63672.6100895 -47824.7847242 60679.9817097 128347.650077 3388.1198154 -147544.821309 -82059.04042 -115584.660913 97136.2503703 -5112.76866057 126388.692724 21960.0836204 -132188.787887 -52029.5567906 69717.9979853 -77368.6794123 124490.971303 58395.9240831 -147397.694821 -83780.7161768 116985.132332 25860.3727406 96451.4350206 39727.924122 -110291.569376 -68290.9101492 -5276.1166692 10694.4030752 -6997.32570398 -43906.4990915 11656.4891882 42942.7060105 -38440.9600512 108279.739807 78910.5539337 109963.860598 38493.333619 9795.76339269 -103613.589449 -51479.758658 -97387.4402284 -89009.922959 -39527.9159454 102651.287812 65035.7922013 4094.25139036 26999.7560509 69965.8670005 -13381.6833869 -4434.84481623 15497.0442108 7278.14774292 45421.6953771 -37954.0070436 -16001.165999 -3974.28097585 -44134.7906182 67058.7769035 71688.8881242 111384.73766 -116792.26246 -6702.48667319 10830.0151124 5533.00206548 20172.3843157 28799.2984462 -65327.1278848 1183.64265799 65498.7796281 16487.1659341 -64906.4841372 -23327.8476508 133966.301126 -137136.684807 24416.4853669 -3307.06226448 -25530.8109511 -16661.6588928 -53385.914187 -17887.7733954 68918.6911477 32194.7489686 -78657.4651377 -47864.195617 27769.7977169 -4604.89494555 -116715.66228 -88793.6496236 103750.612456 67727.1124706 76828.6811917 -52258.4797977 -19352.5071679 -22692.0188824 -106492.534262 -103150.949962 50319.7078813 11685.788876 17962.3846151 68721.8447145 36405.5592937 -81407.7541876 -51105.4586554 -43499.2392365 -30822.1593292 -104995.271249 -11322.2609718 -13075.2553739 -10929.9854744 -13014.9240061 -99936.827192 123030.198734 100658.299801 110716.830712 89104.326578 -32744.0769644 -16309.3174441 -64875.4867806 -60735.3042606 -142998.431121 -145094.561987 -155423.006207 -149651.316311 -142024.536704 -113150.869584 -99096.0760712 -132699.022278 -117134.423997 34114.1754029 57151.9819407 4662.698949 16814.4538046 -106738.485023 -110593.960118 -124502.144668 -144869.128587 -48399.7196251 3974.77143415 78594.0086955 90097.8514126 -41595.8599244 2422.85911662 101351.270968 93003.7476338 80479.4835222 85579.0791624 -37047.2301825 -100697.593006 76260.1252824 64797.7658759 -95420.0692224 -68488.3887295 -141062.452246 -172495.326967 -156580.604391 -134679.269269 -24206.6761864 -2469.8395217 -49016.9191303 -43627.3319258 -74001.4663682 -124672.605234 -135963.759312 -109376.205701 -95406.1267781 -114821.140985 -125717.782884 -125103.905245 -150745.796139 43321.1996392 64985.7259152 19993.1185052 32262.1521782 83383.334267 91252.6982144 -46852.5539066 -6463.90710709 104147.692521 95280.0745971 -54803.8355691 -10840.2537814 -48995.6547575 -109780.310695 83411.8187476 92638.8489099 -103140.614494 -80491.0534444 83586.7387601 71985.7430781 35566.3794113 16876.4688057 65439.5760465 63033.0696188 139117.4447 144672.951084 155606.356438 149082.437615 141339.410357 112819.086957 99257.0685115 133313.227319 116831.550759 -33872.0540716 -57328.2686281 -5478.79548608 -16713.820832 101767.610545 110205.752288 125490.447997 145538.2562 45849.8185372 -3240.78118841 -77915.319607 -90760.5811956 41622.1902173 -2039.85631888 -101512.335461 -93068.3228647 -79265.6263783 -83823.8149261 36307.2980403 103374.802573 -76609.732533 -65126.531398 96098.3639958 68090.0973385 137210.406784 172191.882426 156248.845319 136353.433689 25070.219346 2154.00824548 49183.0508754 43161.6213718 74404.1606434 121387.399221 135994.052037 109568.910551 95621.219775 106925.435597 125155.795385 118883.398483 151577.315103 -45834.1146136 -64943.9363502 -21063.6345103 -32298.5727074 -82624.0705417 -91322.5807822 60000.8540823 4501.83844045 -104781.897175 -95522.2055223 54618.4255947 11452.1382698 46970.1138819 112845.505878 -82590.1599287 -90787.004061 104123.806766 78461.8488189 -83786.1804803 -71715.618269 16560.4334312 60793.1817855 29221.2729771 40083.9846162 124933.483462 125435.28172 65847.1290608 93191.023526 123842.195675 86172.1902932 115867.81326 59430.9669846 68258.1473595 -45400.3934294 8063.17016387 -3770.6887244 9838.85832248 104507.015149 47685.9482629 118047.486493 67381.3891616 18977.6845188 -8990.81491581 -441.080303217 -24743.8377549 39731.3190857 -6273.87604409 -89025.8371061 -67683.791793 -40155.1757552 -26277.8482768 29893.7668847 67348.6569522 -57070.3383067 -28348.0071867 80952.7182868 47851.8683548 148163.195425 123439.244805 62270.2157599 75675.0914602 5084.32327669 49517.8726481 25763.1000728 24274.6426064 65758.4867965 118839.669284 86467.2060478 64009.0613782 63782.0637479 112707.724266 51552.1382823 122589.876022 62254.2666781 -56683.9133516 3574.54831774 -13403.3427602 1200.98853204 -4855.09839528 -23805.3128591 23933.6811488 -1263.17808388 -95618.1754959 -66903.8281609 52445.1914174 7944.07906005 37475.0691786 73945.4971846 -41620.8264336 -31476.7076031 87800.8344288 58828.2578939 -64502.4283884 -28966.3107526 -16172.2797075 -59963.0312002 -29972.5497196 -41395.9463841 -124991.032291 -125434.710436 -64277.8015149 -95727.050452 -124331.601237 -85426.3180253 -115002.937231 -60212.4533569 -66474.4421354 45542.6779004 -6665.9158948 4006.3742218 -8475.15003751 -104878.929821 -45507.5988918 -119155.543408 -63451.2943194 -18978.1931461 10993.7642583 2711.40714416 23630.2852668 -38998.5631741 6137.59756156 89354.6175401 67580.8159305 39750.0653256 26246.9615823 -29147.6440055 -71556.7376051 56943.062138 28064.4321676 -81814.2403738 -47140.350668 -147890.238803 -123504.067413 -65108.324858 -77982.5627993 -4938.95853059 -49706.5755273 -24958.8676771 -24333.6070252 -65017.0892134 -118920.435864 -86899.2881075 -61747.6403126 -62026.2122213 -112844.603447 -51322.9483634 -122410.424522 -61740.5958044 57142.9030977 -3098.05941424 13604.9536578 441.589069467 2991.72745736 24972.7034719 -22799.3592939 2342.20106851 95861.3434691 66491.3283389 -52090.2418539 -8002.18900169 -37694.2863994 -74135.06947 41569.0722307 28710.0590207 -87618.6952348 -58411.8715368 64279.0802889 29786.2530536</DataArray>