<?xml version="1.0" ?>
<VTKFile byte_order="LittleEndian" type="PolyData" version="0.1">
  <PolyData>
    <Piece NumberOfPoints="416" NumberOfPolys="828">
      <Points>
        <DataArray NumberOfComponents="3" format="ascii" type="Float32">-1.92000001675e-07 0.0 -1.10000001996e-07 0.0 1.92000001675e-07 -1.10000001996e-07 1.92000001675e-07 0.0 -1.10000001996e-07 0.0 -1.92000001675e-07 -1.10000001996e-07 -2.41999998707e-07 0.0 -5.9999997859e-08 0.0 2.41999998707e-07 -5.9999997859e-08 2.41999998707e-07 0.0 -5.9999997859e-08 0.0 -2.41999998707e-07 -5.9999997859e-08 -2.41999998707e-07 0.0 5.9999997859e-08 0.0 2.41999998707e-07 5.9999997859e-08 2.41999998707e-07 0.0 5.9999997859e-08 0.0 -2.41999998707e-07 5.9999997859e-08 -1.92000001675e-07 0.0 1.10000001996e-07 0.0 1.92000001675e-07 1.10000001996e-07 1.92000001675e-07 0.0 1.10000001996e-07 0.0 -1.92000001675e-07 1.10000001996e-07 -1.87186159906e-07 4.27240181011e-08 -1.10000001996e-07 -1.72986020175e-07 8.33056787997e-08 -1.10000001996e-07 -1.5011164578e-07 1.19710037438e-07 -1.10000001996e-07 -1.19710037438e-07 1.5011164578e-07 -1.10000001996e-07 -8.33056787997e-08 1.72986020175e-07 -1.10000001996e-07 -4.27240181011e-08 1.87186159906e-07 -1.10000001996e-07 4.27240181011e-08 1.87186159906e-07 -1.10000001996e-07 8.33056787997e-08 1.72986020175e-07 -1.10000001996e-07 1.19710037438e-07 1.5011164578e-07 -1.10000001996e-07 1.5011164578e-07 1.19710037438e-07 -1.10000001996e-07 1.72986020175e-07 8.33056787997e-08 -1.10000001996e-07 1.87186159906e-07 4.27240181011e-08 -1.10000001996e-07 1.87186159906e-07 -4.27240181011e-08 -1.10000001996e-07 1.72986020175e-07 -8.33056787997e-08 -1.10000001996e-07 1.5011164578e-07 -1.19710037438e-07 -1.10000001996e-07 1.19710037438e-07 -1.5011164578e-07 -1.10000001996e-07 8.33056787997e-08 -1.72986020175e-07 -1.10000001996e-07 4.27240181011e-08 -1.87186159906e-07 -1.10000001996e-07 -4.27240181011e-08 -1.87186159906e-07 -1.10000001996e-07 -8.33056787997e-08 -1.72986020175e-07 -1.10000001996e-07 -1.19710037438e-07 -1.5011164578e-07 -1.10000001996e-07 -1.5011164578e-07 -1.19710037438e-07 -1.10000001996e-07 -1.72986020175e-07 -8.33056787997e-08 -1.10000001996e-07 -1.87186159906e-07 -4.27240181011e-08 -1.10000001996e-07 -2.37350036514e-07 4.72118593109e-08 -5.9999997859e-08 -2.23578851433e-07 9.26093903786e-08 -5.9999997859e-08 -2.01215641482e-07 1.34448001177e-07 -5.9999997859e-08 -1.71119836523e-07 1.71119836523e-07 -5.9999997859e-08 -1.34448001177e-07 2.01215641482e-07 -5.9999997859e-08 -9.26093903786e-08 2.23578851433e-07 -5.9999997859e-08 -4.72118593109e-08 2.37350036514e-07 -5.9999997859e-08 4.72118593109e-08 2.37350036514e-07 -5.9999997859e-08 9.26093903786e-08 2.23578851433e-07 -5.9999997859e-08 1.34448001177e-07 2.01215641482e-07 -5.9999997859e-08 1.71119836523e-07 1.71119836523e-07 -5.9999997859e-08 2.01215641482e-07 1.34448001177e-07 -5.9999997859e-08 2.23578851433e-07 9.26093903786e-08 -5.9999997859e-08 2.37350036514e-07 4.72118593109e-08 -5.9999997859e-08 2.37350036514e-07 -4.72118593109e-08 -5.9999997859e-08 2.23578851433e-07 -9.26093903786e-08 -5.9999997859e-08 2.01215641482e-07 -1.34448001177e-07 -5.9999997859e-08 1.71119836523e-07 -1.71119836523e-07 -5.9999997859e-08 1.34448001177e-07 -2.01215641482e-07 -5.9999997859e-08 9.26093903786e-08 -2.23578851433e-07 -5.9999997859e-08 4.72118593109e-08 -2.37350036514e-07 -5.9999997859e-08 -4.72118593109e-08 -2.37350036514e-07 -5.9999997859e-08 -9.26093903786e-08 -2.23578851433e-07 -5.9999997859e-08 -1.34448001177e-07 -2.01215641482e-07 -5.9999997859e-08 -1.71119836523e-07 -1.71119836523e-07 -5.9999997859e-08 -2.01215641482e-07 -1.34448001177e-07 -5.9999997859e-08 -2.23578851433e-07 -9.26093903786e-08 -5.9999997859e-08 -2.37350036514e-07 -4.72118593109e-08 -5.9999997859e-08 -2.37350036514e-07 4.72118593109e-08 5.9999997859e-08 -2.23578851433e-07 9.26093903786e-08 5.9999997859e-08 -2.01215641482e-07 1.34448001177e-07 5.9999997859e-08 -1.71119836523e-07 1.71119836523e-07 5.9999997859e-08 -1.34448001177e-07 2.01215641482e-07 5.9999997859e-08 -9.26093903786e-08 2.23578851433e-07 5.9999997859e-08 -4.72118593109e-08 2.37350036514e-07 5.9999997859e-08 4.72118593109e-08 2.37350036514e-07 5.9999997859e-08 9.26093903786e-08 2.23578851433e-07 5.9999997859e-08 1.34448001177e-07 2.01215641482e-07 5.9999997859e-08 1.71119836523e-07 1.71119836523e-07 5.9999997859e-08 2.01215641482e-07 1.34448001177e-07 5.9999997859e-08 2.23578851433e-07 9.26093903786e-08 5.9999997859e-08 2.37350036514e-07 4.72118593109e-08 5.9999997859e-08 2.37350036514e-07 -4.72118593109e-08 5.9999997859e-08 2.23578851433e-07 -9.26093903786e-08 5.9999997859e-08 2.01215641482e-07 -1.34448001177e-07 5.9999997859e-08 1.71119836523e-07 -1.71119836523e-07 5.9999997859e-08 1.34448001177e-07 -2.01215641482e-07 5.9999997859e-08 9.26093903786e-08 -2.23578851433e-07 5.9999997859e-08 4.72118593109e-08 -2.37350036514e-07 5.9999997859e-08 -4.72118593109e-08 -2.37350036514e-07 5.9999997859e-08 -9.26093903786e-08 -2.23578851433e-07 5.9999997859e-08 -1.34448001177e-07 -2.01215641482e-07 5.9999997859e-08 -1.71119836523e-07 -1.71119836523e-07 5.9999997859e-08 -2.01215641482e-07 -1.34448001177e-07 5.9999997859e-08 -2.23578851433e-07 -9.26093903786e-08 5.9999997859e-08 -2.37350036514e-07 -4.72118593109e-08 5.9999997859e-08 -1.87186159906e-07 4.27240181011e-08 1.10000001996e-07 -1.72986020175e-07 8.33056787997e-08 1.10000001996e-07 -1.5011164578e-07 1.19710037438e-07 1.10000001996e-07 -1.19710037438e-07 1.5011164578e-07 1.10000001996e-07 -8.33056787997e-08 1.72986020175e-07 1.10000001996e-07 -4.27240181011e-08 1.87186159906e-07 1.10000001996e-07 4.27240181011e-08 1.87186159906e-07 1.10000001996e-07 8.33056787997e-08 1.72986020175e-07 1.10000001996e-07 1.19710037438e-07 1.5011164578e-07 1.10000001996e-07 1.5011164578e-07 1.19710037438e-07 1.10000001996e-07 1.72986020175e-07 8.33056787997e-08 1.10000001996e-07 1.87186159906e-07 4.27240181011e-08 1.10000001996e-07 1.87186159906e-07 -4.27240181011e-08 1.10000001996e-07 1.72986020175e-07 -8.33056787997e-08 1.10000001996e-07 1.5011164578e-07 -1.19710037438e-07 1.10000001996e-07 1.19710037438e-07 -1.5011164578e-07 1.10000001996e-07 8.33056787997e-08 -1.72986020175e-07 1.10000001996e-07 4.27240181011e-08 -1.87186159906e-07 1.10000001996e-07 -4.27240181011e-08 -1.87186159906e-07 1.10000001996e-07 -8.33056787997e-08 -1.72986020175e-07 1.10000001996e-07 -1.19710037438e-07 -1.5011164578e-07 1.10000001996e-07 -1.5011164578e-07 -1.19710037438e-07 1.10000001996e-07 -1.72986020175e-07 -8.33056787997e-08 1.10000001996e-07 -1.87186159906e-07 -4.27240181011e-08 1.10000001996e-07 -2.27355343441e-07 0.0 -9.53553396243e-08 0.0 2.27355343441e-07 -9.53553396243e-08 2.27355343441e-07 0.0 -9.53553396243e-08 0.0 -2.27355343441e-07 -9.53553396243e-08 -2.27355343441e-07 0.0 9.53553396243e-08 0.0 2.27355343441e-07 9.53553396243e-08 2.27355343441e-07 0.0 9.53553396243e-08 0.0 -2.27355343441e-07 9.53553396243e-08 -2.41999998707e-07 0.0 -1.99999998785e-08 -2.41999998707e-07 0.0 1.99999998785e-08 0.0 2.41999998707e-07 -1.99999998785e-08 0.0 2.41999998707e-07 1.99999998785e-08 2.41999998707e-07 0.0 -1.99999998785e-08 2.41999998707e-07 0.0 1.99999998785e-08 0.0 -2.41999998707e-07 -1.99999998785e-08 0.0 -2.41999998707e-07 1.99999998785e-08 4.26537312137e-08 -1.26742323303e-08 -1.10000001996e-07 -3.13025090293e-08 5.22174747886e-09 -1.10000001996e-07 4.51158186365e-08 -1.21074222648e-07 -1.10000001996e-07 1.10048581803e-07 -5.68393190292e-08 -1.10000001996e-07 1.43824109955e-07 -1.60426356643e-08 -1.10000001996e-07 -1.03375548122e-07 -5.00856067731e-08 -1.10000001996e-07 1.07740646627e-07 4.86373323838e-08 -1.10000001996e-07 -6.44505817604e-08 9.20432086104e-08 -1.10000001996e-07 -1.9646448024e-08 -1.5119783825e-07 -1.10000001996e-07 -3.1094391062e-08 7.53365867467e-08 -1.10000001996e-07 8.99713938907e-08 -1.17641869579e-08 -1.10000001996e-07 2.54627998686e-08 -8.53002433132e-08 -1.10000001996e-07 -1.47819122276e-07 4.56858266773e-08 -1.10000001996e-07 6.87775383312e-08 -8.28844619605e-08 -1.10000001996e-07 1.14432793907e-07 -1.05964886643e-07 -1.10000001996e-07 1.83192909731e-08 -1.56162911935e-07 -1.10000001996e-07 -1.4522946401e-07 -7.10712910745e-08 -1.10000001996e-07 8.43416003704e-08 -1.31638913103e-07 -1.10000001996e-07 1.50971104063e-07 -5.55669501523e-08 -1.10000001996e-07 1.4006778315e-07 -8.46402983257e-08 -1.10000001996e-07 2.77657701275e-08 5.83680659361e-08 -1.10000001996e-07 -1.13841025495e-08 3.95316241963e-08 -1.10000001996e-07 -2.5527844727e-08 -3.6663028169e-08 -1.10000001996e-07 6.75717046761e-08 7.15373289495e-08 -1.10000001996e-07 6.76825635537e-08 2.88133108484e-08 -1.10000001996e-07 -5.4850197273e-08 -1.45941115193e-07 -1.10000001996e-07 -1.03979658661e-07 -9.853016536e-08 -1.10000001996e-07 5.08402244748e-08 1.40922693959e-07 -1.10000001996e-07 -5.83726880166e-08 -6.62671695295e-08 -1.10000001996e-07 -6.30533278922e-08 -2.61693529069e-08 -1.10000001996e-07 -1.09679717752e-07 9.96423494826e-08 -1.10000001996e-07 1.65985492018e-09 -4.21536716644e-09 -1.10000001996e-07 1.12365846405e-07 1.66997846662e-08 -1.10000001996e-07 1.18717061071e-07 8.21581735977e-08 -1.10000001996e-07 -1.88047906136e-08 -8.31586604022e-08 -1.10000001996e-07 -5.26660990374e-08 4.33633786656e-08 -1.10000001996e-07 -1.03003756635e-07 5.24155083781e-08 -1.10000001996e-07 4.8536299424e-09 -1.21464765357e-07 -1.10000001996e-07 4.18306811412e-08 -5.10556930067e-08 -1.10000001996e-07 -1.21814863974e-07 1.17724860971e-08 -1.10000001996e-07 -3.6725666952e-09 8.8919811958e-08 -1.10000001996e-07 -4.74581760557e-08 1.39963418633e-07 -1.10000001996e-07 -1.36349299851e-07 -2.71714615252e-08 -1.10000001996e-07 5.47612835078e-08 -1.53809651238e-07 -1.10000001996e-07 -7.69369847831e-08 1.16851452958e-08 -1.10000001996e-07 -1.00933576164e-07 -1.63342157578e-08 -1.10000001996e-07 -1.83009685184e-09 1.28936505916e-07 -1.10000001996e-07 -1.37070188089e-07 7.94280978766e-08 -1.10000001996e-07 -8.52412256336e-08 1.30480003691e-07 -1.10000001996e-07 3.14172901028e-08 9
[...]
      <CellData>
        <DataArray Name="rho_e_real" format="ascii" type="Float32">-155101.902573 -13876.9880569 21824.2605638 -78739.9190348 -4596.77668208 657.115664098 142908.729126 -41085.8717429 10752.4008987 -116034.708512 -58741.3688366 -156423.972631 -112078.682877 -56905.346473 8150.27248222 -39806.6996157 -7357.97492214 148897.019318 -121266.0622 -75192.7246636 -46034.5336714 4459.5307191 112956.16737 47818.769974 62009.8898521 28873.9766757 -41614.5906851 -22442.0901242 -18289.7373827 19152.4800378 33929.2653604 -34826.0126619 -31142.4381334 -93.4190231544 105081.367529 -13481.5319485 277.565806543 -48807.7693477 -26295.0657159 20141.6288419 5271.35477175 33154.3482747 40468.4937734 -14953.6760576 2526.57326131 -36815.6749198 -42565.2145215 -43208.4343962 35242.319748 -17839.0101723 5800.95899251 -1190.81630073 -18828.5961565 74980.1845853 62398.5628589 -13666.4811112 11664.6769895 -94885.4594329 1889.71259407 4348.32405231 7765.47855203 14066.7553907 4036.46922152 -47038.229271 -32830.8864698 -10695.7037297 -28209.8548387 -37498.5445719 100205.83301 30636.2398106 51156.9423443 1664.29224175 5321.87480385 -64643.9678313 -49105.6866089 -9459.73218668 -8587.38962675 42052.1309813 15970.3504811 26780.7788579 7866.05266623 15997.7638576 30025.6536502 255.394287473 -1400.56721162 -15702.4854861 46957.3377369 40144.5539599 -6738.52431003 10273.2536288 -14.8017831111 3042.19213098 -15199.7932477 -139524.610831 -79231.0781657 -30441.1081462 -31941.3717615 28026.189969 12967.0970911 22901.6515161 -28557.9598432 -23994.4596145 -5598.03453642 -13840.3117935 -153138.352599 -47900.9207698 -112208.401638 41423.5537924 10208.1643783 34826.3580211 -22275.2358159 -5837.36741563 -16251.4332084 3470.07791079 -17610.3161836 -12128.7676807 8902.55563296 -10729.5904257 121929.640764 67692.9250238 29974.234491 45123.6257681 45536.9274973 -4199.40775138 23639.4753465 35297.4365128 7923.57727673 -11042.6006116 26371.7750651 36711.2874385 7613.72444559 19671.5899831 26869.2791019 22518.8070598 38354.6259439 -44991.5275172 -17575.3753942 -1739.16814223 59399.7694627 74123.3677083 165227.511119 127546.850877 167302.954183 115751.571092 -4583.86671347 -1453.17906141 -7488.44428336 -2650.09221642 -4319.62161559 -5840.95438008 -1365.44063459 -4132.00343717 8508.54067276 17788.020995 65682.0271493 10401.847752 117148.761156 4362.61967743 151109.242284 33624.2908465 26909.2102097 39.2060401213 11736.3843391 20358.5524083 -18996.2529699 -932.737508205 8756.73546626 39636.4828179 -15266.2978472 17979.3901984 18929.2903077 -40800.1491698 -29980.7483741 17197.5741756 -16025.0077222 -43834.087744 -50197.8756187 -28965.5916704 -3017.36724634 45142.6317595 21786.4999732 26422.0704469 47195.1492096 42295.3692871 37337.8390759 -15820.9491788 72819.1252954 67054.6492755 112016.463791 67786.8401429 1750.09472437 -6158.40551347 25715.3994743 -67735.7504022 -153435.74014 -14010.3492368 -155722.340108 -94498.4795808 -87191.5179708 -117587.99534 -54247.2065993 -47992.7453966 -45813.7762528 22591.7237496 -12233.9165074 -22050.8954766 32087.12617 24277.305735 26786.1832662 17126.3262333 17827.6026601 29456.3573722 -33564.6958744 -18075.1165982 169.55659856 -26716.5003769 -10085.4986615 29975.8832292 13405.3132094 26922.0797712 36678.6278445 -19768.1647215 -35245.1226513 -40856.4669612 -21836.3992554 45487.9218806 49378.9238938 -46176.0067587 -108385.471862 -36853.1541806 160144.155962 115791.163502 55399.9176589 -21773.9632501 -11408.4752739 -13741.6940863 9588.64898206 12509.7064884 15778.1922624 27088.9600291 -19970.0732556 -3366.75440174 -43.4316934535 -14384.9700132 27864.8440877 1480.22089016 140952.096645 34301.9733785 49195.0790461 110025.890415 -28408.8628186 -4992.70039152 -30044.6898165 -40189.9614374 -12535.9238009 -144094.977073 -79912.6131652 -3035.91378976 -16400.8046853 -3096.81623401 -4896.0222245 -11646.0362025 -72019.7174765 -61149.3829021 -45426.2297122 -17353.2794507 -43819.6731114 -19980.4644818 -38662.3398544 -7794.6812409 -5458.31362216 1901.38393133 2530.41982806 -5503.34346207 11611.6261318 1405.38830797 3685.4426797 -52915.7644875 -28996.7728315 -66894.4474683 6274.21306115 -18664.1279989 -5095.58158065 120652.853686 66355.8810696 155688.324507 106306.047244 58008.5406792 -159764.594657 -111814.400679 -100134.486945 -27233.8293225 -16191.2997727 33345.6453732 4311.74713652 -4522.75490106 17304.1101634 2183.29982478 36387.2394733 32697.642087 -17912.0663744 2298.94403635 15894.0567835 -16207.3330364 24789.5894375 -5088.69308219 -27342.9880723 4310.9562452 -4551.125545 21566.8334965 -5365.60639468 26634.2231896 -537.015620508 -26428.8412464 1354.2170832 27392.1251049 -27814.2021019 8668.3656597 5943.33536289 -11671.5616289 -4919.26429699 3711.58166602 4843.00251307 12334.5918772 5148.81870951 -12979.6432621 -5190.06397351 134.801275021 26.3091867347 -18960.3806719 -8838.87063328 18746.8039847 8255.20558126 7170.27791757 -6495.77226124 -1320.66768466 -3887.600616 25594.6963785 4700.35647765 6238.39176276 1137.42005552 3637.1098488 8230.40762056 3624.41700413 -8496.37765736 -3768.03416805 -5729.25185594 1130.88429133 3439.78303492 -250.662068221 156.868697599 -66.609831831 86.9898494287 -7679.08489323 -29706.1357192 11453.9997437 -7135.91445876 -8923.40312887 14490.1805771 6820.35795062 -23358.3030313 22871.3393022 -23897.7247487 -1495.16975642 26669.1989374 4017.41379994 13093.0656851 -15874.7776748 -1092.48444068 -29117.6330451 -2921.760751 28940.247327 2856.26651328 -31038.871683 31130.4176897 -16406.6627268 -7019.65457688 19037.9205365 7875.63838741 -12576.7881877 -3585.96448178 -14044.7788537 -6788.49369946 14539.9777077 6863.99825855 170.290958026 -822.954276201 22399.2985404 5104.86988229 -23302.8677886 -4997.99363872 -221.9545836 26387.7266148 -4804.47002413 4294.3719894 -4927.23967591 -2269.2542452 -27116.1953259 3916.49569473 -5598.13230819 -3569.47218845 -290.028357832 2955.16896013 -327.780485204 -160.234457409 -2794.50524413 -8149.60701733 219.010080675 -733.117845232 -298.103894629 -991.71012183 95.3230131582 4968.41395133 474.080533499 1410.30868006 4183.12541666 17680.426357 -2533.8254119 -15968.5315715 16002.2783448 -24903.5111063 4898.92485056 27213.1831313 -4483.96819941 4378.03563439 -21633.1534311 5200.19339183 -26803.3383735 338.146271171 26331.4427273 -1520.59243303 -27527.3346816 27707.3739996 -8838.25794201 -6126.00495538 11558.8516851 4750.7978655 -3821.98196098 -5017.97483288 -12523.3699209 -5340.23647479 12876.7991903 5021.95142303 -338.385445376 -189.443246684 18802.8929987 8711.70836377 -18834.8761894 -8398.40572746 -7291.37394745 6280.3552897 1132.39541349 3712.65536274 -25701.5268121 -4852.79910426 -6386.18157853 -1318.2960991 -3805.45115755 -8386.65062335 -3778.13496934 8286.26932449 3596.8221879 5577.71242047 -1304.16630213 -3541.63627957 78.3793771331 -325.083402404 -105.223574266 -232.546841715 7497.74338157 29417.4906375 -11666.4797525 6873.6093834 8675.57705937 -14560.2215681 -6966.4722182 23298.7952663 -23075.055395 23697.6429969 1330.69644951 -26670.1865936 -4106.12394433 -13180.2030463 15681.8581878 939.078482431 28903.9918448 2749.28709478 -28961.573391 -2965.76547907 30831.3541921 -31183.515218 16182.9394793 6840.51146395 -19043.1595895 -7981.87569104 12378.6888655 3422.13271372 13830.3764955 6589.21315283 -14581.6493559 -7003.61920059 -354.59139925 638.314291524 -22550.2156738 -5198.54796254 23157.3574881 4807.6257331 53.5914954594 -26654.1193008 4578.98307132 -4534.73050871 4736.57533242 2069.00075429 27010.6910165 -4089.99154755 5464.81499859 3473.27892448 132.641286297 -3189.48520805 121.628695845 -5.10970005339 2603.82891041 7934.85869424 -362.651915658 522.510378207 100.404967589 822.162373345 -298.361546891 -5127.9062334 -625.586666405 -1599.36020552 -4323.69025224 46877.4315974 41776.0226768 61893.2417666 76496.9511488 133842.866261 92272.8749853 111652.22035 125084.401123 75449.1268901 85171.8840841 59827.9158016 84043.7810969 106529.276437 20623.7365756 22754.7906026 36577.7901937 42759.5947695 153207.461498 100200.081027 174565.267674 128115.091622 192548.243308 193930.597816 5996.02670395 -15194.4695818 85455.2319601 119389.76443 7404.87570198 -8760.13692686 17296.950335 35146.4790882 202793.749207 194898.869778 31879.940167 15967.2616672 120848.569824 188482.341331 -129897.510593 -92360.0883841 -106218.18644 -125735.477264 -44214.5146772 -41037.4509246 -60196.3009691 -71199.4456177 -59580.1211753 -88277.4493264 -74266.1705954 -86416.183006 -81885.6856581 -146614.680506 -99823.1104946 -167594.54152 -125714.919695 -23224.2156775 -24425.922226 -39701.0879026 -44852.5096737 -14426.7993886 7599.0783707 -194627.54016 -193649.123673 -8247.47665645 6763.07806138 -85728.1865418 -118834.236015 -202114.267681 -190029.42938 -23215.3043699 -43434.3765452 -120987.429406 -185958.827841 -34468.782569 -20695.5324904 -44147.6264707 -41666.2683029 -61660.284281 -75897.6651858 -130545.704289 -92278.393938 -111504.193896 -125218.068521 -75502.5701588 -83596.1840741 -59844.465019 -84099.1430419 -106318.127354 -17852.2192329 -22740.1808458 -35572.675304 -42496.850597 -149552.279824 -100261.172365 -174564.258428 -127907.446309 -194198.325895 -195896.984049 -5541.49426048 15272.1535797 -85580.1967892 -119608.864887 -7512.61376612 8596.10829288 -17276.7773736 -36203.016181 -202343.092728 -195148.980185 -32006.3572175 -16057.7499537 -120974.887314 -188327.929185 125664.60222 92360.1323561 106169.816962 126368.708331 45578.566337 40971.5130954 60058.4635133 71795.8003616 59568.989204 88924.4596055 74131.6564806 86178.7984106 82484.8955145 148560.981967 99810.2812103 165847.77766 126021.400548 24659.9563172 24399.3052059 40684.8628634 44885.623647 13562.7988754 -8016.76555612 191957.135938 191384.857047 8083.35476323 -6895.98003708 85605.3048914 118566.04331 202634.055305 193146.738709 23115.5253154 43351.8231033 121171.452497 185760.389551 34285.6251377 20650.1488901 -41938.1173392 -61968.7240445 -46113.0487791 -75925.5048229 -91409.5245933 -111129.383144 -135714.997031 -124669.960272 -75163.974967 -59669.6678262 -83733.6726672 -84209.5664175 -106562.120387 -22984.5871862 -20629.8608425 -42948.1154662 -36563.7141102 -99682.5369873 -155078.219292 -127481.250957 -173832.059411 -196743.580318 -194605.021192 -6118.68088457 15730.7695833 -84899.3276246 -119061.819758 -7678.80952205 8408.22244306 -17316.1615167 -35814.8082329 -202214.863655 -193895.541131 -32124.7677456 -16100.3849571 -120731.413158 -187796.533943 91633.9849842 105592.346841 123948.754774 125629.825682 40063.1468785 59776.7429839 48621.5276278 72008.8561081 59087.1576428 73611.5603476 85776.1838493 86885.0206612 82138.5071273 99105.9616505 147736.194814 125207.562043 165509.157652 24693.146674 24942.851809 45228.1573722 40074.7226939 13802.6790999 -8524.47597133 190635.560736 193191.669236 7350.68452147 -7061.13804872 84880.2603106 117833.253922 201088.211856 190935.836731 22909.6736755 43182.5004709 120274.44593 185062.702888 33780.396468 20542.1441906 41709.488489 61768.6966095 46285.3458474 76076.7536931 91249.3429263 111042.24638 133466.429843 124603.032584 74994.2534928 59572.2396706 83727.6199866 85317.0950759 106301.569342 22788.9479458 19611.1451191 42819.7199777 35972.2669347 99364.2468456 148857.660894 127176.518212 174024.589566 195211.519675 194825.656967 4630.9231657 -15758.1838599 84569.3282803 118708.566736 7441.12330619 -8644.80621353 17172.128836 35408.7575827 201676.697533 194102.991426 31910.339631 15872.7975652 120258.651048 187237.275366 -91794.326055 -105591.451178 -128597.725844 -125071.545817 -40069.2457589 -59739.0757954 -44259.7002619 -71278.235095 -59163.8016641 -73761.8542871 -85966.8908007 -86519.3249415 -82293.1233871 -99406.1016595 -145827.368754 -125401.86159 -166642.452582 -24789.2942362 -24386.7823634 -45314.2363576 -40812.4415136 -13880.982319 8278.44688661 -192278.679781 -192861.542964 -7493.80840606 6941.30986859 -85186.8162328 -118241.570936 -201655.57991 -190636.63634 -23063.7235837 -43435.8387611 -120544.635274 -185553.467324 -33970.8852111 -20535.1266932</DataArray>