<?xml version="1.0" ?>
<VTKFile byte_order="LittleEndian" type="PolyData" version="0.1">
  <PolyData>
    <Piece NumberOfPoints="416" NumberOfPolys="828">
      <Points>
        <DataArray NumberOfComponents="3" format="ascii" type="Float32">-1.92000001675e-07 0.0 -1.10000001996e-07 0.0 1.92000001675e-07 -1.10000001996e-07 1.92000001675e-07 0.0 -1.10000001996e-07 0.0 -1.92000001675e-07 -1.10000001996e-07 -2.41999998707e-07 0.0 -5.9999997859e-08 0.0 2.41999998707e-07 -5.9999997859e-08 2.41999998707e-07 0.0 -5.9999997859e-08 0.0 -2.41999998707e-07 -5.9999997859e-08 -2.41999998707e-07 0.0 5.9999997859e-08 0.0 2.41999998707e-07 5.9999997859e-08 2.41999998707e-07 0.0 5.9999997859e-08 0.0 -2.41999998707e-07 5.9999997859e-08 -1.92000001675e-07 0.0 1.10000001996e-07 0.0 1.92000001675e-07 1.10000001996e-07 1.92000001675e-07 0.0 1.10000001996e-07 0.0 -1.92000001675e-07 1.10000001996e-07 -1.87186159906e-07 4.27240181011e-08 -1.10000001996e-07 -1.72986020175e-07 8.33056787997e-08 -1.10000001996e-07 -1.5011164578e-07 1.19710037438e-07 -1.10000001996e-07 -1.19710037438e-07 1.5011164578e-07 -1.10000001996e-07 -8.33056787997e-08 1.72986020175e-07 -1.10000001996e-07 -4.27240181011e-08 1.87186159906e-07 -1.10000001996e-07 4.27240181011e-08 1.87186159906e-07 -1.10000001996e-07 8.33056787997e-08 1.72986020175e-07 -1.10000001996e-07 1.19710037438e-07 1.5011164578e-07 -1.10000001996e-07 1.5011164578e-07 1.19710037438e-07 -1.10000001996e-07 1.72986020175e-07 8.33056787997e-08 -1.10000001996e-07 1.87186159906e-07 4.27240181011e-08 -1.10000001996e-07 1.87186159906e-07 -4.27240181011e-08 -1.10000001996e-07 1.72986020175e-07 -8.33056787997e-08 -1.10000001996e-07 1.5011164578e-07 -1.19710037438e-07 -1.10000001996e-07 1.19710037438e-07 -1.5011164578e-07 -1.10000001996e-07 8.33056787997e-08 -1.72986020175e-07 -1.10000001996e-07 4.27240181011e-08 -1.87186159906e-07 -1.10000001996e-07 -4.27240181011e-08 -1.87186159906e-07 -1.10000001996e-07 -8.33056787997e-08 -1.72986020175e-07 -1.10000001996e-07 -1.19710037438e-07 -1.5011164578e-07 -1.10000001996e-07 -1.5011164578e-07 -1.19710037438e-07 -1.10000001996e-07 -1.72986020175e-07 -8.33056787997e-08 -1.10000001996e-07 -1.87186159906e-07 -4.27240181011e-08 -1.10000001996e-07 -2.37350036514e-07 4.72118593109e-08 -5.9999997859e-08 -2.23578851433e-07 9.26093903786e-08 -5.9999997859e-08 -2.01215641482e-07 1.34448001177e-07 -5.9999997859e-08 -1.71119836523e-07 1.71119836523e-07 -5.9999997859e-08 -1.34448001177e-07 2.01215641482e-07 -5.9999997859e-08 -9.26093903786e-08 2.23578851433e-07 -5.9999997859e-08 -4.72118593109e-08 2.37350036514e-07 -5.9999997859e-08 4.72118593109e-08 2.37350036514e-07 -5.9999997859e-08 9.26093903786e-08 2.23578851433e-07 -5.9999997859e-08 1.34448001177e-07 2.01215641482e-07 -5.9999997859e-08 1.71119836523e-07 1.71119836523e-07 -5.9999997859e-08 2.01215641482e-07 1.34448001177e-07 -5.9999997859e-08 2.23578851433e-07 9.26093903786e-08 -5.9999997859e-08 2.37350036514e-07 4.72118593109e-08 -5.9999997859e-08 2.37350036514e-07 -4.72118593109e-08 -5.9999997859e-08 2.23578851433e-07 -9.26093903786e-08 -5.9999997859e-08 2.01215641482e-07 -1.34448001177e-07 -5.9999997859e-08 1.71119836523e-07 -1.71119836523e-07 -5.9999997859e-08 1.34448001177e-07 -2.01215641482e-07 -5.9999997859e-08 9.26093903786e-08 -2.23578851433e-07 -5.9999997859e-08 4.72118593109e-08 -2.37350036514e-07 -5.9999997859e-08 -4.72118593109e-08 -2.37350036514e-07 -5.9999997859e-08 -9.26093903786e-08 -2.23578851433e-07 -5.9999997859e-08 -1.34448001177e-07 -2.01215641482e-07 -5.9999997859e-08 -1.71119836523e-07 -1.71119836523e-07 -5.9999997859e-08 -2.01215641482e-07 -1.34448001177e-07 -5.9999997859e-08 -2.23578851433e-07 -9.26093903786e-08 -5.9999997859e-08 -2.37350036514e-07 -4.72118593109e-08 -5.9999997859e-08 -2.37350036514e-07 4.72118593109e-08 5.9999997859e-08 -2.23578851433e-07 9.26093903786e-08 5.9999997859e-08 -2.01215641482e-07 1.34448001177e-07 5.9999997859e-08 -1.71119836523e-07 1.71119836523e-07 5.9999997859e-08 -1.34448001177e-07 2.01215641482e-07 5.9999997859e-08 -9.26093903786e-08 2.23578851433e-07 5.9999997859e-08 -4.72118593109e-08 2.37350036514e-07 5.9999997859e-08 4.72118593109e-08 2.37350036514e-07 5.9999997859e-08 9.26093903786e-08 2.23578851433e-07 5.9999997859e-08 1.34448001177e-07 2.01215641482e-07 5.9999997859e-08 1.71119836523e-07 1.71119836523e-07 5.9999997859e-08 2.01215641482e-07 1.34448001177e-07 5.9999997859e-08 2.23578851433e-07 9.26093903786e-08 5.9999997859e-08 2.37350036514e-07 4.72118593109e-08 5.9999997859e-08 2.37350036514e-07 -4.72118593109e-08 5.9999997859e-08 2.23578851433e-07 -9.26093903786e-08 5.9999997859e-08 2.01215641482e-07 -1.34448001177e-07 5.9999997859e-08 1.71119836523e-07 -1.71119836523e-07 5.9999997859e-08 1.34448001177e-07 -2.01215641482e-07 5.9999997859e-08 9.26093903786e-08 -2.23578851433e-07 5.9999997859e-08 4.72118593109e-08 -2.37350036514e-07 5.9999997859e-08 -4.72118593109e-08 -2.37350036514e-07 5.9999997859e-08 -9.26093903786e-08 -2.23578851433e-07 5.9999997859e-08 -1.34448001177e-07 -2.01215641482e-07 5.9999997859e-08 -1.71119836523e-07 -1.71119836523e-07 5.9999997859e-08 -2.01215641482e-07 -1.34448001177e-07 5.9999997859e-08 -2.23578851433e-07 -9.26093903786e-08 5.9999997859e-08 -2.37350036514e-07 -4.72118593109e-08 5.9999997859e-08 -1.87186159906e-07 4.27240181011e-08 1.10000001996e-07 -1.72986020175e-07 8.33056787997e-08 1.10000001996e-07 -1.5011164578e-07 1.19710037438e-07 1.10000001996e-07 -1.19710037438e-07 1.5011164578e-07 1.10000001996e-07 -8.33056787997e-08 1.72986020175e-07 1.10000001996e-07 -4.27240181011e-08 1.87186159906e-07 1.10000001996e-07 4.27240181011e-08 1.87186159906e-07 1.10000001996e-07 8.33056787997e-08 1.72986020175e-07 1.10000001996e-07 1.19710037438e-07 1.5011164578e-07 1.10000001996e-07 1.5011164578e-07 1.19710037438e-07 1.10000001996e-07 1.72986020175e-07 8.33056787997e-08 1.10000001996e-07 1.87186159906e-07 4.27240181011e-08 1.10000001996e-07 1.87186159906e-07 -4.27240181011e-08 1.10000001996e-07 1.72986020175e-07 -8.33056787997e-08 1.10000001996e-07 1.5011164578e-07 -1.19710037438e-07 1.10000001996e-07 1.19710037438e-07 -1.5011164578e-07 1.10000001996e-07 8.33056787997e-08 -1.72986020175e-07 1.10000001996e-07 4.27240181011e-08 -1.87186159906e-07 1.10000001996e-07 -4.27240181011e-08 -1.87186159906e-07 1.10000001996e-07 -8.33056787997e-08 -1.72986020175e-07 1.10000001996e-07 -1.19710037438e-07 -1.5011164578e-07 1.10000001996e-07 -1.5011164578e-07 -1.19710037438e-07 1.10000001996e-07 -1.72986020175e-07 -8.33056787997e-08 1.10000001996e-07 -1.87186159906e-07 -4.27240181011e-08 1.10000001996e-07 -2.27355343441e-07 0.0 -9.53553396243e-08 0.0 2.27355343441e-07 -9.53553396243e-08 2.27355343441e-07 0.0 -9.53553396243e-08 0.0 -2.27355343441e-07 -9.53553396243e-08 -2.27355343441e-07 0.0 9.53553396243e-08 0.0 2.27355343441e-07 9.53553396243e-08 2.27355343441e-07 0.0 9.53553396243e-08 0.0 -2.27355343441e-07 9.53553396243e-08 -2.41999998707e-07 0.0 -1.99999998785e-08 -2.41999998707e-07 0.0 1.99999998785e-08 0.0 2.41999998707e-07 -1.99999998785e-08 0.0 2.41999998707e-07 1.99999998785e-08 2.41999998707e-07 0.0 -1.99999998785e-08 2.41999998707e-07 0.0 1.99999998785e-08 0.0 -2.41999998707e-07 -1.99999998785e-08 0.0 -2.41999998707e-07 1.99999998785e-08 4.26537312137e-08 -1.26742323303e-08 -1.10000001996e-07 -3.13025090293e-08 5.22174747886e-09 -1.10000001996e-07 4.51158186365e-08 -1.21074222648e-07 -1.10000001996e-07 1.10048581803e-07 -5.68393190292e-08 -1.10000001996e-07 1.43824109955e-07 -1.60426356643e-08 -1.10000001996e-07 -1.03375548122e-07 -5.00856067731e-08 -1.10000001996e-07 1.07740646627e-07 4.86373323838e-08 -1.10000001996e-07 -6.44505817604e-08 9.20432086104e-08 -1.10000001996e-07 -1.9646448024e-08 -1.5119783825e-07 -1.10000001996e-07 -3.1094391062e-08 7.53365867467e-08 -1.10000001996e-07 8.99713938907e-08 -1.17641869579e-08 -1.10000001996e-07 2.54627998686e-08 -8.53002433132e-08 -1.10000001996e-07 -1.47819122276e-07 4.56858266773e-08 -1.10000001996e-07 6.87775383312e-08 -8.28844619605e-08 -1.10000001996e-07 1.14432793907e-07 -1.05964886643e-07 -1.10000001996e-07 1.83192909731e-08 -1.56162911935e-07 -1.10000001996e-07 -1.4522946401e-07 -7.10712910745e-08 -1.10000001996e-07 8.43416003704e-08 -1.31638913103e-07 -1.10000001996e-07 1.50971104063e-07 -5.55669501523e-08 -1.10000001996e-07 1.4006778315e-07 -8.46402983257e-08 -1.10000001996e-07 2.77657701275e-08 5.83680659361e-08 -1.10000001996e-07 -1.13841025495e-08 3.95316241963e-08 -1.10000001996e-07 -2.5527844727e-08 -3.6663028169e-08 -1.10000001996e-07 6.75717046761e-08 7.15373289495e-08 -1.10000001996e-07 6.76825635537e-08 2.88133108484e-08 -1.10000001996e-07 -5.4850197273e-08 -1.45941115193e-07 -1.10000001996e-07 -1.03979658661e-07 -9.853016536e-08 -1.10000001996e-07 5.08402244748e-08 1.40922693959e-07 -1.10000001996e-07 -5.83726880166e-08 -6.62671695295e-08 -1.10000001996e-07 -6.30533278922e-08 -2.61693529069e-08 -1.10000001996e-07 -1.09679717752e-07 9.96423494826e-08 -1.10000001996e-07 1.65985492018e-09 -4.21536716644e-09 -1.10000001996e-07 1.12365846405e-07 1.66997846662e-08 -1.10000001996e-07 1.18717061071e-07 8.21581735977e-08 -1.10000001996e-07 -1.88047906136e-08 -8.31586604022e-08 -1.10000001996e-07 -5.26660990374e-08 4.33633786656e-08 -1.10000001996e-07 -1.03003756635e-07 5.24155083781e-08 -1.10000001996e-07 4.8536299424e-09 -1.21464765357e-07 -1.10000001996e-07 4.18306811412e-08 -5.10556930067e-08 -1.10000001996e-07 -1.21814863974e-07 1.17724860971e-08 -1.10000001996e-07 -3.6725666952e-09 8.8919811958e-08 -1.10000001996e-07 -4.74581760557e-08 1.39963418633e-07 -1.10000001996e-07 -1.36349299851e-07 -2.71714615252e-08 -1.10000001996e-07 5.47612835078e-08 -1.53809651238e-07 -1.10000001996e-07 -7.69369847831e-08 1.16851452958e-08 -1.10000001996e-07 -1.00933576164e-07 -1.63342157578e-08 -1.10000001996e-07 -1.83009685184e-09 1.28936505916e-07 -1.10000001996e-07 -1.37070188089e-07 7.94280978766e-08 -1.10000001996e-07 -8.52412256336e-08 1.30480003691e-07 -1.10000001996e-07 3.14172901028e-08 9
[...]
      <CellData>
        <DataArray Name="rho_m_real" format="ascii" type="Float32">21888.9731823 29125.6718236 99089.9956095 125305.22677 83653.3403948 178890.331812 67898.6748373 158482.641066 113329.663949 39721.4766237 41511.0263212 67813.1924087 82617.5803965 64122.8622551 176851.517948 140952.171439 104785.266359 -62753.1437915 93977.759902 96236.4480895 87959.2041357 164932.557509 98285.0638383 -2782.79974631 101389.319261 74352.830557 19711.8164051 11564.3308399 -13559.6451163 -31742.243498 -12524.4771116 -31059.6355305 -50831.3240138 -80455.1057689 51739.6755302 149834.381242 139245.510408 5044.62721044 31144.2448636 183805.530842 160354.368021 -51228.528536 -54189.7919036 -72357.5788842 -62068.6502662 47212.9017954 44012.611786 9048.06746255 -37348.7242585 177818.020444 137835.655302 170216.06055 -180574.419039 -129493.900266 132456.056692 73621.7115114 -176292.974802 -105119.115137 -69009.4661784 141667.217707 132732.398684 112820.074194 96694.320608 -20945.9239891 -74996.2869055 2617.61976279 -61569.7341023 -35991.9368366 -74273.5640918 -79156.0920317 -59500.4694622 -110267.842305 -119627.979133 -133440.087647 -114106.784583 -124595.114152 -111404.951061 157649.274946 159841.071738 125320.995943 -19233.0825106 -42452.6431319 -1075.9717116 133514.596595 136411.570842 92949.7008357 -14060.3428032 -37396.2039941 125943.943594 -116802.71041 129391.654022 113134.243866 -91864.6328159 -65557.3058133 -67496.247389 -37182.03702 -50875.2343565 -78833.7171567 -83541.7336842 -93554.8662873 64354.0141949 87828.6459357 110115.801773 107730.08755 -23962.2950214 -12179.8391037 -6329.83387028 -168309.970632 -142603.687411 -136479.596496 -91389.5083417 -125412.203452 -114740.342465 -106466.001584 -480.218865258 -26129.1977821 -87509.3127038 -107266.79114 -103692.019188 -94926.7743289 71444.9783508 24593.4249514 35934.7762714 30078.417538 21141.5809964 37407.6298234 72784.5789087 54541.4014297 61926.6668772 47470.4394077 30778.9244168 10524.8378046 38512.4609955 61929.2641542 61202.4860594 -160324.079387 -156414.63854 -123100.6287 687.762070087 -20812.8761425 -19588.8286622 -31319.1618719 16695.4041755 23869.7311957 -165246.01742 -139933.312303 -177555.429775 -167715.033677 -152781.923027 -141592.363806 -171671.115018 -165104.108894 -182747.860514 -178616.557582 -138122.345479 -159917.300858 102612.49429 -163096.839037 -23801.6237376 -163140.215598 -129101.663002 180968.066132 -116161.158608 -96542.5530468 80845.9931481 -78507.4961615 42712.0589363 -52819.4497254 -62114.8559519 63054.9591854 -46399.3479209 52749.7038191 55223.2145532 -34664.4353258 340.996881915 -27852.061984 -6751.962582 68435.5034183 -107498.785473 -31823.0768728 -93033.5272379 24233.843182 -13570.9249806 45145.4030407 10803.7513541 -49464.6085838 137278.52829 109245.746549 -105067.710506 -104469.503543 -114979.611644 -99575.5801522 -30797.8196364 129177.820637 70915.2696855 -10117.6852571 21853.6701625 112358.388778 68412.536373 42987.7112413 122863.25164 18001.046465 32221.7455052 69556.2429915 58078.4113616 97652.109535 67152.7140026 90821.2519528 -55627.4182717 -76825.0534701 -71757.9454312 -72375.7176804 19242.7115577 38166.9861198 84903.2152323 -21825.5285484 -42187.9014525 -15970.932474 2016.77840056 -9765.92435785 -30088.1123898 -35047.5219274 -8936.74783128 -32388.3526357 88822.8985191 26179.3607376 7561.52030246 61619.7589209 -104763.960558 -65457.4799318 21701.923161 -4164.34931082 -4705.60345859 185487.153596 -80474.4463278 -180837.78534 -127740.417612 -118605.788062 28541.504641 47458.5063175 -92667.245865 -136479.528553 -137927.295278 -109334.049981 94793.0752841 100986.062651 -72429.2560792 -81756.4168436 -54755.1120019 -47917.1812001 -71061.1410038 -83600.7188749 -58657.3816607 -55626.5580164 118847.429026 -70172.8801433 -76235.5940028 -118140.540956 -100628.702777 160487.006195 134118.939538 131667.1387 -129496.255147 -111464.761511 -160043.536252 -149564.039398 148836.610442 168048.223212 125200.177803 176517.956763 157540.679137 -176047.892906 -152914.090439 128100.349718 114503.143939 133776.420973 112685.698363 6021.12282432 27550.4206943 42217.0200157 87174.4100838 102119.675765 65557.8167345 43819.6053737 36840.6123334 63929.2688547 72155.6768851 62822.1091137 -20794.4116168 2334.44759407 -32836.1163865 36415.6134793 17561.2249368 19153.697789 125269.117826 134539.48288 179374.284139 159993.980488 170793.781384 144334.833868 -134720.94979 -107866.808335 -399768.127923 -403954.012804 -191664.979624 -224034.876528 -195369.756692 -227930.818419 -184168.724362 -118712.162528 -133813.28009 -253349.203489 -302867.735966 -253393.69854 -299441.920263 -313541.507479 -315314.237958 -245651.514155 -259127.829713 -255748.505814 -254582.328757 -168686.988065 -174085.750026 -315196.400373 -345205.819954 -316342.161561 -346267.608931 -28842.1910113 -503563.118539 -389936.887054 -389360.958359 -386039.789502 -397665.812851 -445035.419142 -410094.698174 -494810.490913 -453851.983206 -49097.7189269 -12320.5540746 -410101.870584 -498110.325985 -454894.836085 -447889.701869 -493716.961543 -448511.104841 -496127.260574 -49714.6111924 -86163.5666512 -91232.2258749 -359053.195544 -415929.694897 -498705.500299 -494285.939857 -436557.635634 -37871.3265383 -48830.9034218 -9584.66144989 -60728.9256819 -399982.934554 -459437.51416 -111283.734778 -111864.582618 -368751.789094 -463871.81942 -356132.319436 -461302.819725 -424247.480209 -399614.185752 -503670.499955 -320894.05627 -402449.697158 -322289.329246 -399150.655837 -273996.874587 -277452.791787 -375220.588616 -426718.307113 -376301.749781 -405506.744362 -423218.295958 -470421.072847 -330273.160107 -372716.902312 -329246.486197 -371230.780316 -505901.6092 -29739.1255071 -207973.017053 -262042.550234 -205568.282613 -268429.857651 -182600.69436 -46203.562484 -42229.4046322 -10170.3993973 -413103.587803 -454994.249901 -46173.9252454 -44197.8371921 -12858.7928341 -90504.742614 -82876.1973104 -91018.3028571 -83859.7035885 -504048.934843 -487710.405022 -437751.109586 -347932.560579 -320289.650019 -105918.961343 -172125.744355 -178924.082846 -406320.914132 -514949.324234 -447733.890824 -440100.39082 133959.971412 107973.725826 398161.712615 403430.149997 190499.238679 224204.684547 195359.015401 228000.040882 183977.246618 118423.864839 133928.723206 253119.122228 302806.540504 253497.223679 299478.485524 313022.205835 316752.599435 245572.41142 259346.931935 255729.200706 254493.427181 168677.483323 174367.786687 315305.525257 345334.310491 316245.809082 346016.633322 28881.6490231 503411.390532 390075.154355 389485.28839 385209.028192 397704.289128 444975.171124 409992.828479 494633.588481 453802.185626 49224.479875 12363.9512152 409762.729181 497903.676402 454893.680663 447910.635961 493806.095783 448447.466606 495930.075585 49772.439747 86192.8461396 91492.8277271 358915.447038 415746.80815 498690.343237 494498.678299 436217.485368 37940.8220619 48914.4014183 9674.32173999 60577.3327519 400192.849685 459481.220386 110885.292235 111990.286218 368623.753384 463613.905726 353431.803304 461361.07338 424352.265828 399850.871242 503337.963399 321234.381083 402284.604843 320994.041285 398973.305857 274520.10439 276193.216744 375146.179799 426549.643817 375780.02959 405971.407378 423050.398368 470227.920182 330336.632804 372436.725309 329118.712318 371499.288557 505755.987585 29763.124981 208294.923197 262122.975798 205424.593823 268354.366993 182378.256717 46244.1619894 42254.029565 10241.0869353 412903.974526 454843.221651 46160.1970693 44216.2202577 12952.3554297 90637.7392837 82967.3672449 90892.9766997 83873.7639698 503859.291191 487508.561034 437482.234607 347900.026166 320186.440161 105967.52789 172121.091635 179036.868791 406292.962507 514674.613582 447611.578332 440253.73791 -222295.172076 -330076.197365 -283123.47569 -231702.142494 -123698.324569 -175021.929901 -200571.902712 -151643.8224 -237594.061211 -200150.894331 -293518.525358 -241966.978551 -196971.411575 -238167.277046 -354380.663957 -244438.844753 -319027.955114 -74664.5311964 -110895.262524 -110200.751427 -124141.061381 -31702.2143214 -20589.3616075 -241460.881317 -270002.27961 -42493.2696073 -13595.6346616 -379545.496454 -346417.584892 -319974.802367 -275043.805515 -23296.9422353 -52632.2876149 -340929.943638 -312341.870541 -58200.8652179 -57185.9574191 -125608.40466 -171677.41909 -197452.188702 -168914.941107 -216805.225433 -328450.721216 -290833.753824 -223126.30914 -287584.800217 -179598.908531 -245313.052942 -256566.659666 -204748.588429 -79780.1818587 -111655.834864 -112868.377392 -120365.168452 -244219.734388 -353255.03553 -256040.074881 -323468.528863 -245672.352614 -267610.207015 -29235.228681 -19336.720677 -379152.117262 -346815.486729 -43899.14855 -13775.6387078 -23464.0722456 -54064.1661901 -319675.2024 -278010.110315 -60189.2644577 -56780.9199898 -343351.221019 -310676.473631 217396.252629 329238.215184 286252.53594 234455.62166 122748.724767 176299.612618 203832.076203 150923.707892 235802.064315 193267.091835 293392.448821 244304.419011 195542.641117 239603.913879 356093.370145 250184.578082 323909.52212 75431.7313765 110523.251594 114963.770984 126687.360628 32896.1827695 20071.0161928 245065.92385 272062.249466 42340.2989552 13992.065894 378148.567452 346867.711484 312382.716621 276428.052187 23108.4954889 55484.0299513 345001.651166 313182.340588 59076.3457905 56362.5189537 121934.656414 171590.632636 195914.875111 170414.202484 223149.748861 329172.281573 288916.514953 227486.17758 287876.075099 188372.08883 245058.102054 253681.656794 206434.981462 73687.7435845 111612.429206 105899.540473 122364.714453 237679.715983 351977.407781 255872.495012 322695.986381 242529.469475 272389.877897 36135.1282364 18555.0781751 379607.941373 347167.571939 43765.3838219 14369.5771133 22594.90346 59394.6007265 314738.363854 267300.583127 61388.8279776 55686.6565546 342904.923366 309837.969651 -329100.604543 -287767.888268 -213216.23753 -228716.19198 -176421.296756 -199978.472282 -130519.814857 -150391.348607 -236615.477225 -294488.982189 -242844.044149 -194324.152923 -204215.646889 -353865.827136 -240375.642921 -320644.795945 -246481.107488 -105553.924014 -77707.2168025 -125039.036796 -112523.808716 -30353.8105279 -20127.125666 -245645.562756 -270959.072523 -41771.044277 -15928.9911554 -379474.294228 -348862.286822 -311479.23862 -267874.07733 -23493.7170497 -51040.1521976 -342951.490416 -306878.385428 -54803.4169479 -59288.4873444 -171795.807477 -196491.619174 -123569.003144 -166012.727426 -331226.606012 -285616.129025 -220593.09528 -227660.761619 -290976.565978 -245084.090052 -250890.066783 -190196.478432 -210162.267247 -110488.55726 -70796.9680882 -120272.557393 -110547.455462 -358029.640026 -234774.446 -321456.563662 -249985.003259 -238468.17903 -270800.768352 -29863.3868656 -22351.1766892 -381633.37125 -347578.263001 -43566.7476109 -12847.8653426 -21974.4883163 -52962.0867593 -309191.836574 -263726.509527 -60401.8307952 -58142.0679902 -344715.703856 -308345.684548 330178.530222 283879.272891 214376.761117 227099.810426 175044.648684 199019.050178 121851.623066 155315.336205 238623.736486 292159.746308 239299.776782 197941.248489 200339.7222 354072.899016 233629.328806 321313.487797 247460.545711 106804.444491 76101.967112 128156.318414 105427.487012 31089.7746634 17115.6696799 243533.572011 276049.076085 40813.5264015 16506.2001626 379372.833419 347549.323486 309147.862875 265023.234353 23051.263141 60167.2233461 342854.298396 310678.640146 57054.2244621 58725.3348007 170034.626944 196631.572048 126588.678884 176756.699965 334028.73264 293199.209056 215967.585349 221897.03763 287275.345972 247387.419368 258010.460249 187954.701339 201321.818404 111203.336958 74202.5933116 119521.885651 106749.97046 355365.261956 237198.100155 323286.9031 259602.34951 245873.622431 273796.328758 29173.0755055 20944.5052161 382961.299143 346874.178325 43357.7317876 13419.5387797 23094.2475385 53712.4518099 308236.516491 262350.922078 60460.0904336 57406.629848 343784.176427 306947.863969</DataArray>