<?xml version="1.0" ?>
<VTKFile byte_order="LittleEndian" type="PolyData" version="0.1">
  <PolyData>
    <Piece NumberOfPoints="416" NumberOfPolys="828">
      <Points>
        <DataArray NumberOfComponents="3" format="ascii" type="Float32">-1.92000001675e-07 0.0 -1.10000001996e-07 0.0 1.92000001675e-07 -1.10000001996e-07 1.92000001675e-07 0.0 -1.10000001996e-07 0.0 -1.92000001675e-07 -1.10000001996e-07 -2.41999998707e-07 0.0 -5.9999997859e-08 0.0 2.41999998707e-07 -5.9999997859e-08 2.41999998707e-07 0.0 -5.9999997859e-08 0.0 -2.41999998707e-07 -5.9999997859e-08 -2.41999998707e-07 0.0 5.9999997859e-08 0.0 2.41999998707e-07 5.9999997859e-08 2.41999998707e-07 0.0 5.9999997859e-08 0.0 -2.41999998707e-07 5.9999997859e-08 -1.92000001675e-07 0.0 1.10000001996e-07 0.0 1.92000001675e-07 1.10000001996e-07 1.92000001675e-07 0.0 1.10000001996e-07 0.0 -1.92000001675e-07 1.10000001996e-07 -1.87186159906e-07 4.27240181011e-08 -1.10000001996e-07 -1.72986020175e-07 8.33056787997e-08 -1.10000001996e-07 -1.5011164578e-07 1.19710037438e-07 -1.10000001996e-07 -1.19710037438e-07 1.5011164578e-07 -1.10000001996e-07 -8.33056787997e-08 1.72986020175e-07 -1.10000001996e-07 -4.27240181011e-08 1.87186159906e-07 -1.10000001996e-07 4.27240181011e-08 1.87186159906e-07 -1.10000001996e-07 8.33056787997e-08 1.72986020175e-07 -1.10000001996e-07 1.19710037438e-07 1.5011164578e-07 -1.10000001996e-07 1.5011164578e-07 1.19710037438e-07 -1.10000001996e-07 1.72986020175e-07 8.33056787997e-08 -1.10000001996e-07 1.87186159906e-07 4.27240181011e-08 -1.10000001996e-07 1.87186159906e-07 -4.27240181011e-08 -1.10000001996e-07 1.72986020175e-07 -8.33056787997e-08 -1.10000001996e-07 1.5011164578e-07 -1.19710037438e-07 -1.10000001996e-07 1.19710037438e-07 -1.5011164578e-07 -1.10000001996e-07 8.33056787997e-08 -1.72986020175e-07 -1.10000001996e-07 4.27240181011e-08 -1.87186159906e-07 -1.10000001996e-07 -4.27240181011e-08 -1.87186159906e-07 -1.10000001996e-07 -8.33056787997e-08 -1.72986020175e-07 -1.10000001996e-07 -1.19710037438e-07 -1.5011164578e-07 -1.10000001996e-07 -1.5011164578e-07 -1.19710037438e-07 -1.10000001996e-07 -1.72986020175e-07 -8.33056787997e-08 -1.10000001996e-07 -1.87186159906e-07 -4.27240181011e-08 -1.10000001996e-07 -2.37350036514e-07 4.72118593109e-08 -5.9999997859e-08 -2.23578851433e-07 9.26093903786e-08 -5.9999997859e-08 -2.01215641482e-07 1.34448001177e-07 -5.9999997859e-08 -1.71119836523e-07 1.71119836523e-07 -5.9999997859e-08 -1.34448001177e-07 2.01215641482e-07 -5.9999997859e-08 -9.26093903786e-08 2.23578851433e-07 -5.9999997859e-08 -4.72118593109e-08 2.37350036514e-07 -5.9999997859e-08 4.72118593109e-08 2.37350036514e-07 -5.9999997859e-08 9.26093903786e-08 2.23578851433e-07 -5.9999997859e-08 1.34448001177e-07 2.01215641482e-07 -5.9999997859e-08 1.71119836523e-07 1.71119836523e-07 -5.9999997859e-08 2.01215641482e-07 1.34448001177e-07 -5.9999997859e-08 2.23578851433e-07 9.26093903786e-08 -5.9999997859e-08 2.37350036514e-07 4.72118593109e-08 -5.9999997859e-08 2.37350036514e-07 -4.72118593109e-08 -5.9999997859e-08 2.23578851433e-07 -9.26093903786e-08 -5.9999997859e-08 2.01215641482e-07 -1.34448001177e-07 -5.9999997859e-08 1.71119836523e-07 -1.71119836523e-07 -5.9999997859e-08 1.34448001177e-07 -2.01215641482e-07 -5.9999997859e-08 9.26093903786e-08 -2.23578851433e-07 -5.9999997859e-08 4.72118593109e-08 -2.37350036514e-07 -5.9999997859e-08 -4.72118593109e-08 -2.37350036514e-07 -5.9999997859e-08 -9.26093903786e-08 -2.23578851433e-07 -5.9999997859e-08 -1.34448001177e-07 -2.01215641482e-07 -5.9999997859e-08 -1.71119836523e-07 -1.71119836523e-07 -5.9999997859e-08 -2.01215641482e-07 -1.34448001177e-07 -5.9999997859e-08 -2.23578851433e-07 -9.26093903786e-08 -5.9999997859e-08 -2.37350036514e-07 -4.72118593109e-08 -5.9999997859e-08 -2.37350036514e-07 4.72118593109e-08 5.9999997859e-08 -2.23578851433e-07 9.26093903786e-08 5.9999997859e-08 -2.01215641482e-07 1.34448001177e-07 5.9999997859e-08 -1.71119836523e-07 1.71119836523e-07 5.9999997859e-08 -1.34448001177e-07 2.01215641482e-07 5.9999997859e-08 -9.26093903786e-08 2.23578851433e-07 5.9999997859e-08 -4.72118593109e-08 2.37350036514e-07 5.9999997859e-08 4.72118593109e-08 2.37350036514e-07 5.9999997859e-08 9.26093903786e-08 2.23578851433e-07 5.9999997859e-08 1.34448001177e-07 2.01215641482e-07 5.9999997859e-08 1.71119836523e-07 1.71119836523e-07 5.9999997859e-08 2.01215641482e-07 1.34448001177e-07 5.9999997859e-08 2.23578851433e-07 9.26093903786e-08 5.9999997859e-08 2.37350036514e-07 4.72118593109e-08 5.9999997859e-08 2.37350036514e-07 -4.72118593109e-08 5.9999997859e-08 2.23578851433e-07 -9.26093903786e-08 5.9999997859e-08 2.01215641482e-07 -1.34448001177e-07 5.9999997859e-08 1.71119836523e-07 -1.71119836523e-07 5.9999997859e-08 1.34448001177e-07 -2.01215641482e-07 5.9999997859e-08 9.26093903786e-08 -2.23578851433e-07 5.9999997859e-08 4.72118593109e-08 -2.37350036514e-07 5.9999997859e-08 -4.72118593109e-08 -2.37350036514e-07 5.9999997859e-08 -9.26093903786e-08 -2.23578851433e-07 5.9999997859e-08 -1.34448001177e-07 -2.01215641482e-07 5.9999997859e-08 -1.71119836523e-07 -1.71119836523e-07 5.9999997859e-08 -2.01215641482e-07 -1.34448001177e-07 5.9999997859e-08 -2.23578851433e-07 -9.26093903786e-08 5.9999997859e-08 -2.37350036514e-07 -4.72118593109e-08 5.9999997859e-08 -1.87186159906e-07 4.27240181011e-08 1.10000001996e-07 -1.72986020175e-07 8.33056787997e-08 1.10000001996e-07 -1.5011164578e-07 1.19710037438e-07 1.10000001996e-07 -1.19710037438e-07 1.5011164578e-07 1.10000001996e-07 -8.33056787997e-08 1.72986020175e-07 1.10000001996e-07 -4.27240181011e-08 1.87186159906e-07 1.10000001996e-07 4.27240181011e-08 1.87186159906e-07 1.10000001996e-07 8.33056787997e-08 1.72986020175e-07 1.10000001996e-07 1.19710037438e-07 1.5011164578e-07 1.10000001996e-07 1.5011164578e-07 1.19710037438e-07 1.10000001996e-07 1.72986020175e-07 8.33056787997e-08 1.10000001996e-07 1.87186159906e-07 4.27240181011e-08 1.10000001996e-07 1.87186159906e-07 -4.27240181011e-08 1.10000001996e-07 1.72986020175e-07 -8.33056787997e-08 1.10000001996e-07 1.5011164578e-07 -1.19710037438e-07 1.10000001996e-07 1.19710037438e-07 -1.5011164578e-07 1.10000001996e-07 8.33056787997e-08 -1.72986020175e-07 1.10000001996e-07 4.27240181011e-08 -1.87186159906e-07 1.10000001996e-07 -4.27240181011e-08 -1.87186159906e-07 1.10000001996e-07 -8.33056787997e-08 -1.72986020175e-07 1.10000001996e-07 -1.19710037438e-07 -1.5011164578e-07 1.10000001996e-07 -1.5011164578e-07 -1.19710037438e-07 1.10000001996e-07 -1.72986020175e-07 -8.33056787997e-08 1.10000001996e-07 -1.87186159906e-07 -4.27240181011e-08 1.10000001996e-07 -2.27355343441e-07 0.0 -9.53553396243e-08 0.0 2.27355343441e-07 -9.53553396243e-08 2.27355343441e-07 0.0 -9.53553396243e-08 0.0 -2.27355343441e-07 -9.53553396243e-08 -2.27355343441e-07 0.0 9.53553396243e-08 0.0 2.27355343441e-07 9.53553396243e-08 2.27355343441e-07 0.0 9.53553396243e-08 0.0 -2.27355343441e-07 9.53553396243e-08 -2.41999998707e-07 0.0 -1.99999998785e-08 -2.41999998707e-07 0.0 1.99999998785e-08 0.0 2.41999998707e-07 -1.99999998785e-08 0.0 2.41999998707e-07 1.99999998785e-08 2.41999998707e-07 0.0 -1.99999998785e-08 2.41999998707e-07 0.0 1.99999998785e-08 0.0 -2.41999998707e-07 -1.99999998785e-08 0.0 -2.41999998707e-07 1.99999998785e-08 4.26537312137e-08 -1.26742323303e-08 -1.10000001996e-07 -3.13025090293e-08 5.22174747886e-09 -1.10000001996e-07 4.51158186365e-08 -1.21074222648e-07 -1.10000001996e-07 1.10048581803e-07 -5.68393190292e-08 -1.10000001996e-07 1.43824109955e-07 -1.60426356643e-08 -1.10000001996e-07 -1.03375548122e-07 -5.00856067731e-08 -1.10000001996e-07 1.07740646627e-07 4.86373323838e-08 -1.10000001996e-07 -6.44505817604e-08 9.20432086104e-08 -1.10000001996e-07 -1.9646448024e-08 -1.5119783825e-07 -1.10000001996e-07 -3.1094391062e-08 7.53365867467e-08 -1.10000001996e-07 8.99713938907e-08 -1.17641869579e-08 -1.10000001996e-07 2.54627998686e-08 -8.53002433132e-08 -1.10000001996e-07 -1.47819122276e-07 4.56858266773e-08 -1.10000001996e-07 6.87775383312e-08 -8.28844619605e-08 -1.10000001996e-07 1.14432793907e-07 -1.05964886643e-07 -1.10000001996e-07 1.83192909731e-08 -1.56162911935e-07 -1.10000001996e-07 -1.4522946401e-07 -7.10712910745e-08 -1.10000001996e-07 8.43416003704e-08 -1.31638913103e-07 -1.10000001996e-07 1.50971104063e-07 -5.55669501523e-08 -1.10000001996e-07 1.4006778315e-07 -8.46402983257e-08 -1.10000001996e-07 2.77657701275e-08 5.83680659361e-08 -1.10000001996e-07 -1.13841025495e-08 3.95316241963e-08 -1.10000001996e-07 -2.5527844727e-08 -3.6663028169e-08 -1.10000001996e-07 6.75717046761e-08 7.15373289495e-08 -1.10000001996e-07 6.76825635537e-08 2.88133108484e-08 -1.10000001996e-07 -5.4850197273e-08 -1.45941115193e-07 -1.10000001996e-07 -1.03979658661e-07 -9.853016536e-08 -1.10000001996e-07 5.08402244748e-08 1.40922693959e-07 -1.10000001996e-07 -5.83726880166e-08 -6.62671695295e-08 -1.10000001996e-07 -6.30533278922e-08 -2.61693529069e-08 -1.10000001996e-07 -1.09679717752e-07 9.96423494826e-08 -1.10000001996e-07 1.65985492018e-09 -4.21536716644e-09 -1.10000001996e-07 1.12365846405e-07 1.66997846662e-08 -1.10000001996e-07 1.18717061071e-07 8.21581735977e-08 -1.10000001996e-07 -1.88047906136e-08 -8.31586604022e-08 -1.10000001996e-07 -5.26660990374e-08 4.33633786656e-08 -1.10000001996e-07 -1.03003756635e-07 5.24155083781e-08 -1.10000001996e-07 4.8536299424e-09 -1.21464765357e-07 -1.10000001996e-07 4.18306811412e-08 -5.10556930067e-08 -1.10000001996e-07 -1.21814863974e-07 1.17724860971e-08 -1.10000001996e-07 -3.6725666952e-09 8.8919811958e-08 -1.10000001996e-07 -4.74581760557e-08 1.39963418633e-07 -1.10000001996e-07 -1.36349299851e-07 -2.71714615252e-08 -1.10000001996e-07 5.47612835078e-08 -1.53809651238e-07 -1.10000001996e-07 -7.69369847831e-08 1.16851452958e-08 -1.10000001996e-07 -1.00933576164e-07 -1.63342157578e-08 -1.10000001996e-07 -1.83009685184e-09 1.28936505916e-07 -1.10000001996e-07 -1.37070188089e-07 7.94280978766e-08 -1.10000001996e-07 -8.52412256336e-08 1.30480003691e-07 -1.10000001996e-07 3.14172901028e-08 9
[...]
      <CellData>
        <DataArray Name="rho_m_real" format="ascii" type="Float32">21711.0571028 32736.8500342 110230.408913 123280.029808 91192.3667281 171733.845882 66066.9816268 147860.715074 120497.618983 35182.3146394 49662.9388784 58560.4634167 74903.3811031 69429.333262 171725.083242 134172.029896 115524.950046 -55276.8472778 92612.7005107 110132.877874 86931.7048911 168185.524611 81035.0232198 -1670.21406643 97282.7477917 81782.2880273 22075.858726 11480.5819306 -14766.5522365 -34298.7073717 -13546.7982877 -34191.7812409 -58578.9586638 -91680.231441 48796.0508853 152836.055806 152503.793853 4150.4448185 32282.6993022 161962.759688 163239.786202 -54959.4972067 -60291.6623423 -77747.2269883 -68907.5424372 53313.6856941 48817.5725836 12424.799757 -43304.7494269 166770.347135 150797.535357 168870.538298 -159799.47578 -119858.874253 119873.004008 79726.1645183 -159018.183726 -90581.7733056 -77154.3677793 159597.931343 144770.515841 122729.777126 108942.756961 -23253.9719618 -80307.2119075 3781.50161243 -70564.8382087 -40424.7666567 -66941.9342108 -81573.2307686 -65017.2050848 -122400.314119 -133508.368586 -137486.947163 -106987.888442 -137587.736581 -122861.3887 150693.021249 150409.272671 128577.414245 -22013.4043517 -46420.3481456 -2745.11251522 146977.340756 151542.214842 100988.563522 -14478.4329732 -43065.0311083 132752.272738 -128681.932594 139425.908354 126936.366175 -106229.424529 -47161.8331174 -66654.5790473 -38423.3931471 -64190.6140326 -88422.3655151 -95075.6028861 -104296.419983 72624.861735 97920.7620095 118973.833116 120746.638226 -32869.5127634 -14557.2075024 -6812.18156624 -145762.522377 -147680.730162 -126304.480351 -105566.05609 -134182.22758 -124607.428264 -118441.901306 -1632.983436 -29065.8619543 -98119.5929974 -114222.272727 -93748.1690186 -104604.960505 83662.9745825 27450.1830416 38105.2461957 33276.0354838 23074.0800355 43189.9618397 83208.045662 60695.7491039 68666.9041949 48596.610363 37896.7855871 12026.3167183 39098.0778974 71673.6735995 67730.3472013 -147450.827806 -148398.178634 -136312.458126 5730.04309208 -21776.8420717 -11252.1279248 -32813.18266 6592.42590355 18389.193764 -163915.014912 -158034.272339 -175831.978169 -166377.416744 -159594.967155 -155002.576596 -177472.549581 -173263.388899 168780.880208 168571.153813 121257.161187 155329.927258 -92154.8664424 163022.915448 23453.2372016 145452.940929 130710.891662 -171687.806331 129126.345443 106877.797182 -88583.002747 87792.5626633 -48170.8894939 60103.5493214 69278.5571258 -71583.0242346 51702.0951679 -58237.8997921 -62481.4778247 40395.8289295 212.738635756 30222.3045132 8057.39523694 -75404.7651516 117243.201614 36586.6505942 103638.662583 -26415.7521604 15007.75505 -51084.206158 -11279.5934263 50295.0024226 -124185.234659 -108079.364457 82147.9973367 102201.965465 131532.106036 110971.950404 34183.7785107 -124853.897081 -59376.4269005 10140.8998833 -22897.5601903 -90330.6623916 -75893.1829214 -39497.8025725 -103384.724169 -18885.3324897 -37617.0878174 -73506.7812625 -65834.5994592 -109124.537865 -75975.0312176 -99817.4747069 61941.6208975 86288.455334 77720.4256646 81674.6526211 -20618.8912982 -43797.0133069 -94831.4872046 24471.3244653 46125.5933116 18609.1698103 -3056.3984398 12343.2428111 31879.1536124 37692.5984563 9882.08485452 35313.4847286 -99388.7489922 -30428.024963 -8519.53823719 -68109.3266851 92020.1830745 77317.8208639 -20535.6031337 2836.60304132 6446.78163012 -163166.965646 92395.9012785 161443.801873 149284.782204 127413.632529 -30049.2561065 -54279.3088499 107201.653883 144494.176317 153525.496095 119152.986154 -101565.999621 -112726.598251 69886.2739275 86429.366145 58198.082002 46939.2863432 79514.2508677 93146.5192505 67645.9895008 61168.5010682 -132722.817125 58363.9204302 71963.0928231 126783.964844 108175.776055 -162441.541372 -136239.698063 -131009.516357 133227.238657 112715.133845 142886.336298 146182.298468 -153554.459746 -151687.488428 -141150.001625 -164397.9243 -163169.332112 165741.228313 156644.3048 -149442.319661 -127172.546058 -149060.009105 -124857.664546 -5176.70060196 -27740.8791549 -43548.0350847 -96073.3249842 -114554.412519 -73505.6746029 -35848.7841031 -44531.4323656 -57811.0847552 -76899.9201256 -62794.7144245 18899.9947446 -1529.90458207 37825.4879929 -39214.6101894 -19861.5212535 -20646.4174547 -130904.375924 -143850.054533 -161879.537576 -160642.102358 -153037.45368 -133595.322965 -15014.8945269 -9854.42855179 54808.9734689 -54669.9138921 24072.8680433 5969.25545823 -26791.6940025 -11936.4129557 -19719.4127372 15901.9763329 2391.92369737 36299.1912207 12236.5343569 -36406.7612822 -12552.7307384 39791.0576891 -39449.8324696 31446.6253567 11051.0770414 -33415.2736186 -13962.8266768 21519.3649213 4593.32599772 35040.5453482 12279.5669115 -35299.2163122 -13747.0847925 -471.600118474 931.219788157 -36194.0283845 -31524.7396122 35837.8213085 30895.973271 38423.5115846 -52657.8218353 -23023.3168559 -46021.4470465 5398.29880066 2814.3166066 52864.5701295 22440.0562113 46996.1480923 50421.4432811 24098.2948631 -50619.7695791 -24266.8924578 867.199521333 4845.2555367 12533.7256619 -391.621206074 35.1059316745 -249.259872742 493.97932429 -38974.8039792 -5149.30653587 -2238.4745325 -2115.00389457 -5199.66088538 -47567.3003639 -35995.3450716 16253.1482624 -16273.1004967 47142.9743686 10386.0243389 -51354.7891194 -24933.4540086 -41886.9289762 53055.4711006 9493.98853886 45177.409831 15570.5530947 -45566.8441999 -15936.9019737 32263.6845298 -32354.4790322 49590.7944904 17476.914676 -50483.3097202 -19513.5758092 55698.2190788 12325.7963236 37965.4966772 12022.151444 -38206.2544049 -13861.4670874 -4192.30847955 -155.839588318 -18916.030197 -22560.8790339 18711.3205992 22064.7847577 14014.3541026 -5185.05725271 -703.158486934 -2440.95938317 52868.3325314 48351.1244939 5289.06373211 785.852434861 2400.96171456 10896.5321704 5530.11225314 -10685.2380505 -5294.53978097 20706.1209019 20514.2401345 55346.1768899 -453.272668292 3.9862694625 107.445558447 221.060461183 -14140.026708 -54953.6509557 -35122.8583973 -47669.8090786 -38210.3764158 14834.7649643 9919.40829261 -54677.0464607 54761.8492331 -23610.4869248 -5895.90930866 26941.8293768 12012.9109653 19689.0176933 -15672.694384 -2284.17328811 -36152.999578 -12165.274745 36518.4256926 12602.1761083 -39786.7237777 39783.9543194 -31256.4245835 -10988.6015064 33489.8306957 13982.7440565 -21374.6521202 -4513.04285728 -35077.0911691 -12230.5205307 35255.8206341 13732.0803879 544.680116654 -920.896715457 36242.0054634 31507.9080105 -35854.9740671 -31001.4060416 -38553.6337752 52705.8219505 23032.9294538 46084.7302811 -5335.3749543 -2727.9676362 -52880.4832466 -22456.9059527 -47031.3919685 -50566.0729894 -24207.7683841 50638.611012 24290.608777 -792.009459867 -4777.42255872 -12534.7311315 362.324482909 -118.842088964 187.777788674 -598.507708971 38931.87476 5179.63945023 2300.45074921 2197.15941352 5147.37940562 47646.1901394 36082.9236489 -16118.055204 16255.5705781 -47055.5584711 -10418.3977932 50836.4248854 24989.9788114 41994.1738521 -53192.024336 -9459.46335458 -45163.8257021 -15617.3115684 45185.4174025 15920.3689713 -32275.7177374 31923.7352684 -49568.9437647 -17504.3548881 50439.5384741 19668.457483 -55669.5671095 -12245.5842582 -38061.4453895 -12098.431341 38097.2322842 13923.7936238 4217.99181125 206.82878337 19002.9828528 22571.6603588 -18669.4143383 -22108.6907462 -13884.439403 5247.58436794 754.713647437 2512.27591146 -52859.4306582 -48317.4425335 -5205.32119917 -695.248975822 -2330.55508611 -10790.2397039 -5437.99429897 10694.7060449 5363.17894274 -20700.693129 -20433.1803433 -55269.3638239 417.028613765 -47.7103425199 2.70519399719 -217.507094073 14193.8425634 55071.6176803 35125.3556679 47719.6051034 38308.3365056 -98720.6317981 -2259.98459827 -6305.04320813 -84956.6750198 -59526.8059093 -3532.64083692 -4895.47665485 -52060.2949687 -2091.71582433 -75274.9494262 905.21290479 680.127933314 -72053.0158074 -106869.167169 -1413.81361452 -101470.968801 -8074.4764898 -36025.7598437 1151.54708257 -48059.8997674 1920.32915616 -17691.5564506 -15480.3425488 -125852.491017 -112287.00136 3079.21102902 -6895.35759261 30207.2087139 10510.9420923 -47598.5370546 -119748.606666 3803.36392298 -5735.15452744 5012.72677892 -43292.5895832 8873.90522761 -9536.08460373 -60002.3798104 -1363.91727227 -1619.53390326 -57703.738339 -95252.2124228 -8521.13171284 -6733.93937839 -84074.8063072 -3985.32714245 -71522.4978374 -639.336884362 -1095.18931272 -72724.5660408 -34937.1810426 1991.65248685 -50264.1925882 2620.86597049 -101334.631256 -3044.6982528 -100756.389301 -8046.21466316 -125427.32083 -112838.830573 -11148.7322652 -15535.4232939 30258.7470654 10639.0395641 2898.14834671 -6594.73261759 2338.46426159 -5466.18900109 -47490.8376888 -119331.188694 9472.47579472 -9502.11137213 5699.35234261 -43719.7730065 94006.4441043 1999.54311029 5330.50150284 84441.1990102 58532.5793763 3495.20038017 4432.78999048 53569.6257889 2494.5331988 74885.1359659 -840.77753772 -1134.4929987 72171.6450295 99343.1089347 924.943682628 101405.520178 6734.31088632 34927.8511473 -718.690567271 47938.2740168 -2212.81191702 15308.4267445 16695.8616831 126629.754283 112937.949654 -2932.61912329 6778.21813928 -29989.3295022 -10719.637012 48471.9140011 118898.008462 -4174.01685939 4767.36765838 -6022.37609625 43473.6601447 -9089.7110688 9789.86434795 61763.8208637 1285.32187093 1565.22227155 55908.3935313 92364.5450585 8207.71265368 6353.289079 84866.9187669 4059.09404814 74494.5564093 460.731293058 666.62809971 72730.809237 36097.6934279 -1523.15683691 51751.8355019 -2282.16656967 104445.853365 3565.13424702 99603.344367 8634.79792037 129228.52046 112058.406019 18254.7570217 15701.9748713 -30396.9314944 -10746.4310205 -2822.92068816 6722.93839777 -3576.31695637 4269.21907715 47752.5839614 121351.286321 -8900.95897917 9647.60977734 -5282.34212239 43863.4944454 2541.68015243 5925.2827164 98903.5368086 86037.8092478 4379.66851982 5338.67331272 59303.5708455 53290.1823463 2615.35502505 -1005.20365699 -610.458457271 71918.173084 71187.7434615 1364.53549313 107309.797491 7948.39570337 100698.358781 -1574.5153189 34206.7080894 -2177.58448573 47823.1171547 15852.472246 15855.0726353 135429.54349 112090.569767 -2395.31987363 6564.05384596 -29876.9221831 -10317.9560831 48225.5442386 120890.589613 -3600.70650656 6251.96566561 -5710.03966097 43735.4920269 -8366.40808483 9429.78851946 1017.8909091 1668.28329951 59024.4369505 57267.7528247 8039.46597912 7925.73109779 97356.5143102 84196.6495129 3356.61900891 642.38381364 1851.10538123 72316.5130841 71477.1942947 -1445.27198973 31405.453198 -2008.49562254 50353.5224143 -3030.01182569 102172.592135 7980.65848461 101769.736114 136009.005864 112810.895998 12637.7200706 16168.5476668 -29806.4166971 -10775.4805283 -3126.47870556 6687.43772263 -3526.06517168 6183.41970594 48711.678107 119673.448706 -8712.48598889 10595.7355433 -6618.60885139 44521.7019055 -2173.04249516 -6586.72656295 -95755.9498591 -86046.426918 -4503.59668118 -5699.78380479 -58777.5759571 -51465.7429841 -2111.0487441 494.345465833 -387.860865955 -75991.4593513 -71910.0709064 -1363.50158446 -105678.933094 -8377.00050927 -100609.731371 1822.97897793 -34411.2226657 2341.08220847 -50258.8895901 -15463.9384573 -16537.3233664 -131486.391892 -112156.385262 2105.82701579 -6395.19028436 30071.0675645 10306.32511 -48202.9476575 -121050.987411 3210.82228771 -3971.49051462 5541.49920402 -43620.2956132 8950.24135335 -9240.54547491 -1687.66052773 -1756.17269946 -56620.7645804 -54450.6959946 -7323.06497944 -5876.71845979 -91374.1328209 -86050.242304 -4241.93497043 -208.886328619 -118.683211417 -72008.4911253 -74668.8066916 1868.10242264 -33295.7189134 1832.4564228 -50798.6795865 2623.31371871 -103887.770425 -7658.3612449 -98873.7617373 -134905.050616 -112130.10949 -14412.6769841 -15996.500218 29957.7879105 10482.5286772 3011.15762931 -6607.64119206 3578.61487121 -5944.43565085 -48292.8496789 -121443.880177 8754.97614128 -9962.61150724 6319.6192497 -43330.0808372</DataArray>