<?xml version="1.0" ?>
<VTKFile byte_order="LittleEndian" type="PolyData" version="0.1">
  <PolyData>
    <Piece NumberOfPoints="416" NumberOfPolys="828">
      <Points>
        <DataArray NumberOfComponents="3" format="ascii" type="Float32">-1.92000001675e-07 0.0 -1.10000001996e-07 0.0 1.92000001675e-07 -1.10000001996e-07 1.92000001675e-07 0.0 -1.10000001996e-07 0.0 -1.92000001675e-07 -1.10000001996e-07 -2.41999998707e-07 0.0 -5.9999997859e-08 0.0 2.41999998707e-07 -5.9999997859e-08 2.41999998707e-07 0.0 -5.9999997859e-08 0.0 -2.41999998707e-07 -5.9999997859e-08 -2.41999998707e-07 0.0 5.9999997859e-08 0.0 2.41999998707e-07 5.9999997859e-08 2.41999998707e-07 0.0 5.9999997859e-08 0.0 -2.41999998707e-07 5.9999997859e-08 -1.92000001675e-07 0.0 1.10000001996e-07 0.0 1.92000001675e-07 1.10000001996e-07 1.92000001675e-07 0.0 1.10000001996e-07 0.0 -1.92000001675e-07 1.10000001996e-07 -1.87186159906e-07 4.27240181011e-08 -1.10000001996e-07 -1.72986020175e-07 8.33056787997e-08 -1.10000001996e-07 -1.5011164578e-07 1.19710037438e-07 -1.10000001996e-07 -1.19710037438e-07 1.5011164578e-07 -1.10000001996e-07 -8.33056787997e-08 1.72986020175e-07 -1.10000001996e-07 -4.27240181011e-08 1.87186159906e-07 -1.10000001996e-07 4.27240181011e-08 1.87186159906e-07 -1.10000001996e-07 8.33056787997e-08 1.72986020175e-07 -1.10000001996e-07 1.19710037438e-07 1.5011164578e-07 -1.10000001996e-07 1.5011164578e-07 1.19710037438e-07 -1.10000001996e-07 1.72986020175e-07 8.33056787997e-08 -1.10000001996e-07 1.87186159906e-07 4.27240181011e-08 -1.10000001996e-07 1.87186159906e-07 -4.27240181011e-08 -1.10000001996e-07 1.72986020175e-07 -8.33056787997e-08 -1.10000001996e-07 1.5011164578e-07 -1.19710037438e-07 -1.10000001996e-07 1.19710037438e-07 -1.5011164578e-07 -1.10000001996e-07 8.33056787997e-08 -1.72986020175e-07 -1.10000001996e-07 4.27240181011e-08 -1.87186159906e-07 -1.10000001996e-07 -4.27240181011e-08 -1.87186159906e-07 -1.10000001996e-07 -8.33056787997e-08 -1.72986020175e-07 -1.10000001996e-07 -1.19710037438e-07 -1.5011164578e-07 -1.10000001996e-07 -1.5011164578e-07 -1.19710037438e-07 -1.10000001996e-07 -1.72986020175e-07 -8.33056787997e-08 -1.10000001996e-07 -1.87186159906e-07 -4.27240181011e-08 -1.10000001996e-07 -2.37350036514e-07 4.72118593109e-08 -5.9999997859e-08 -2.23578851433e-07 9.26093903786e-08 -5.9999997859e-08 -2.01215641482e-07 1.34448001177e-07 -5.9999997859e-08 -1.71119836523e-07 1.71119836523e-07 -5.9999997859e-08 -1.34448001177e-07 2.01215641482e-07 -5.9999997859e-08 -9.26093903786e-08 2.23578851433e-07 -5.9999997859e-08 -4.72118593109e-08 2.37350036514e-07 -5.9999997859e-08 4.72118593109e-08 2.37350036514e-07 -5.9999997859e-08 9.26093903786e-08 2.23578851433e-07 -5.9999997859e-08 1.34448001177e-07 2.01215641482e-07 -5.9999997859e-08 1.71119836523e-07 1.71119836523e-07 -5.9999997859e-08 2.01215641482e-07 1.34448001177e-07 -5.9999997859e-08 2.23578851433e-07 9.26093903786e-08 -5.9999997859e-08 2.37350036514e-07 4.72118593109e-08 -5.9999997859e-08 2.37350036514e-07 -4.72118593109e-08 -5.9999997859e-08 2.23578851433e-07 -9.26093903786e-08 -5.9999997859e-08 2.01215641482e-07 -1.34448001177e-07 -5.9999997859e-08 1.71119836523e-07 -1.71119836523e-07 -5.9999997859e-08 1.34448001177e-07 -2.01215641482e-07 -5.9999997859e-08 9.26093903786e-08 -2.23578851433e-07 -5.9999997859e-08 4.72118593109e-08 -2.37350036514e-07 -5.9999997859e-08 -4.72118593109e-08 -2.37350036514e-07 -5.9999997859e-08 -9.26093903786e-08 -2.23578851433e-07 -5.9999997859e-08 -1.34448001177e-07 -2.01215641482e-07 -5.9999997859e-08 -1.71119836523e-07 -1.71119836523e-07 -5.9999997859e-08 -2.01215641482e-07 -1.34448001177e-07 -5.9999997859e-08 -2.23578851433e-07 -9.26093903786e-08 -5.9999997859e-08 -2.37350036514e-07 -4.72118593109e-08 -5.9999997859e-08 -2.37350036514e-07 4.72118593109e-08 5.9999997859e-08 -2.23578851433e-07 9.26093903786e-08 5.9999997859e-08 -2.01215641482e-07 1.34448001177e-07 5.9999997859e-08 -1.71119836523e-07 1.71119836523e-07 5.9999997859e-08 -1.34448001177e-07 2.01215641482e-07 5.9999997859e-08 -9.26093903786e-08 2.23578851433e-07 5.9999997859e-08 -4.72118593109e-08 2.37350036514e-07 5.9999997859e-08 4.72118593109e-08 2.37350036514e-07 5.9999997859e-08 9.26093903786e-08 2.23578851433e-07 5.9999997859e-08 1.34448001177e-07 2.01215641482e-07 5.9999997859e-08 1.71119836523e-07 1.71119836523e-07 5.9999997859e-08 2.01215641482e-07 1.34448001177e-07 5.9999997859e-08 2.23578851433e-07 9.26093903786e-08 5.9999997859e-08 2.37350036514e-07 4.72118593109e-08 5.9999997859e-08 2.37350036514e-07 -4.72118593109e-08 5.9999997859e-08 2.23578851433e-07 -9.26093903786e-08 5.9999997859e-08 2.01215641482e-07 -1.34448001177e-07 5.9999997859e-08 1.71119836523e-07 -1.71119836523e-07 5.9999997859e-08 1.34448001177e-07 -2.01215641482e-07 5.9999997859e-08 9.26093903786e-08 -2.23578851433e-07 5.9999997859e-08 4.72118593109e-08 -2.37350036514e-07 5.9999997859e-08 -4.72118593109e-08 -2.37350036514e-07 5.9999997859e-08 -9.26093903786e-08 -2.23578851433e-07 5.9999997859e-08 -1.34448001177e-07 -2.01215641482e-07 5.9999997859e-08 -1.71119836523e-07 -1.71119836523e-07 5.9999997859e-08 -2.01215641482e-07 -1.34448001177e-07 5.9999997859e-08 -2.23578851433e-07 -9.26093903786e-08 5.9999997859e-08 -2.37350036514e-07 -4.72118593109e-08 5.9999997859e-08 -1.87186159906e-07 4.27240181011e-08 1.10000001996e-07 -1.72986020175e-07 8.33056787997e-08 1.10000001996e-07 -1.5011164578e-07 1.19710037438e-07 1.10000001996e-07 -1.19710037438e-07 1.5011164578e-07 1.10000001996e-07 -8.33056787997e-08 1.72986020175e-07 1.10000001996e-07 -4.27240181011e-08 1.87186159906e-07 1.10000001996e-07 4.27240181011e-08 1.87186159906e-07 1.10000001996e-07 8.33056787997e-08 1.72986020175e-07 1.10000001996e-07 1.19710037438e-07 1.5011164578e-07 1.10000001996e-07 1.5011164578e-07 1.19710037438e-07 1.10000001996e-07 1.72986020175e-07 8.33056787997e-08 1.10000001996e-07 1.87186159906e-07 4.27240181011e-08 1.10000001996e-07 1.87186159906e-07 -4.27240181011e-08 1.10000001996e-07 1.72986020175e-07 -8.33056787997e-08 1.10000001996e-07 1.5011164578e-07 -1.19710037438e-07 1.10000001996e-07 1.19710037438e-07 -1.5011164578e-07 1.10000001996e-07 8.33056787997e-08 -1.72986020175e-07 1.10000001996e-07 4.27240181011e-08 -1.87186159906e-07 1.10000001996e-07 -4.27240181011e-08 -1.87186159906e-07 1.10000001996e-07 -8.33056787997e-08 -1.72986020175e-07 1.10000001996e-07 -1.19710037438e-07 -1.5011164578e-07 1.10000001996e-07 -1.5011164578e-07 -1.19710037438e-07 1.10000001996e-07 -1.72986020175e-07 -8.33056787997e-08 1.10000001996e-07 -1.87186159906e-07 -4.27240181011e-08 1.10000001996e-07 -2.27355343441e-07 0.0 -9.53553396243e-08 0.0 2.27355343441e-07 -9.53553396243e-08 2.27355343441e-07 0.0 -9.53553396243e-08 0.0 -2.27355343441e-07 -9.53553396243e-08 -2.27355343441e-07 0.0 9.53553396243e-08 0.0 2.27355343441e-07 9.53553396243e-08 2.27355343441e-07 0.0 9.53553396243e-08 0.0 -2.27355343441e-07 9.53553396243e-08 -2.41999998707e-07 0.0 -1.99999998785e-08 -2.41999998707e-07 0.0 1.99999998785e-08 0.0 2.41999998707e-07 -1.99999998785e-08 0.0 2.41999998707e-07 1.99999998785e-08 2.41999998707e-07 0.0 -1.99999998785e-08 2.41999998707e-07 0.0 1.99999998785e-08 0.0 -2.41999998707e-07 -1.99999998785e-08 0.0 -2.41999998707e-07 1.99999998785e-08 4.26537312137e-08 -1.26742323303e-08 -1.10000001996e-07 -3.13025090293e-08 5.22174747886e-09 -1.10000001996e-07 4.51158186365e-08 -1.21074222648e-07 -1.10000001996e-07 1.10048581803e-07 -5.68393190292e-08 -1.10000001996e-07 1.43824109955e-07 -1.60426356643e-08 -1.10000001996e-07 -1.03375548122e-07 -5.00856067731e-08 -1.10000001996e-07 1.07740646627e-07 4.86373323838e-08 -1.10000001996e-07 -6.44505817604e-08 9.20432086104e-08 -1.10000001996e-07 -1.9646448024e-08 -1.5119783825e-07 -1.10000001996e-07 -3.1094391062e-08 7.53365867467e-08 -1.10000001996e-07 8.99713938907e-08 -1.17641869579e-08 -1.10000001996e-07 2.54627998686e-08 -8.53002433132e-08 -1.10000001996e-07 -1.47819122276e-07 4.56858266773e-08 -1.10000001996e-07 6.87775383312e-08 -8.28844619605e-08 -1.10000001996e-07 1.14432793907e-07 -1.05964886643e-07 -1.10000001996e-07 1.83192909731e-08 -1.56162911935e-07 -1.10000001996e-07 -1.4522946401e-07 -7.10712910745e-08 -1.10000001996e-07 8.43416003704e-08 -1.31638913103e-07 -1.10000001996e-07 1.50971104063e-07 -5.55669501523e-08 -1.10000001996e-07 1.4006778315e-07 -8.46402983257e-08 -1.10000001996e-07 2.77657701275e-08 5.83680659361e-08 -1.10000001996e-07 -1.13841025495e-08 3.95316241963e-08 -1.10000001996e-07 -2.5527844727e-08 -3.6663028169e-08 -1.10000001996e-07 6.75717046761e-08 7.15373289495e-08 -1.10000001996e-07 6.76825635537e-08 2.88133108484e-08 -1.10000001996e-07 -5.4850197273e-08 -1.45941115193e-07 -1.10000001996e-07 -1.03979658661e-07 -9.853016536e-08 -1.10000001996e-07 5.08402244748e-08 1.40922693959e-07 -1.10000001996e-07 -5.83726880166e-08 -6.62671695295e-08 -1.10000001996e-07 -6.30533278922e-08 -2.61693529069e-08 -1.10000001996e-07 -1.09679717752e-07 9.96423494826e-08 -1.10000001996e-07 1.65985492018e-09 -4.21536716644e-09 -1.10000001996e-07 1.12365846405e-07 1.66997846662e-08 -1.10000001996e-07 1.18717061071e-07 8.21581735977e-08 -1.10000001996e-07 -1.88047906136e-08 -8.31586604022e-08 -1.10000001996e-07 -5.26660990374e-08 4.33633786656e-08 -1.10000001996e-07 -1.03003756635e-07 5.24155083781e-08 -1.10000001996e-07 4.8536299424e-09 -1.21464765357e-07 -1.10000001996e-07 4.18306811412e-08 -5.10556930067e-08 -1.10000001996e-07 -1.21814863974e-07 1.17724860971e-08 -1.10000001996e-07 -3.6725666952e-09 8.8919811958e-08 -1.10000001996e-07 -4.74581760557e-08 1.39963418633e-07 -1.10000001996e-07 -1.36349299851e-07 -2.71714615252e-08 -1.10000001996e-07 5.47612835078e-08 -1.53809651238e-07 -1.10000001996e-07 -7.69369847831e-08 1.16851452958e-08 -1.10000001996e-07 -1.00933576164e-07 -1.63342157578e-08 -1.10000001996e-07 -1.83009685184e-09 1.28936505916e-07 -1.10000001996e-07 -1.37070188089e-07 7.94280978766e-08 -1.10000001996e-07 -8.52412256336e-08 1.30480003691e-07 -1.10000001996e-07 3.14172901028e-08 9
[...]
      <CellData>
        <DataArray Name="rho_e_real" format="ascii" type="Float32">39143.6087461 171350.712076 90817.9857251 42008.894087 122691.394154 7367.93293461 -28655.2569159 35100.410421 79772.8812486 60994.2879173 115268.740475 29289.0331761 44938.9041948 88757.6015926 -5427.81085359 42647.8757162 81141.1728531 -40858.7469148 29225.6036792 47221.7532328 90229.081895 -2317.89728689 -33498.8952395 208664.804353 -53579.6829698 -112801.144228 -148469.964411 -73435.8012559 -57031.6855732 197331.549231 218649.647205 -119697.091719 -106222.912338 -124918.260764 -61250.3712476 25866.6088098 40307.7220281 -193975.672177 -197224.954113 -16033.0010014 -12327.082116 184053.271576 160121.966655 -48585.8059441 13005.1502085 -186648.647846 -158775.726205 -222930.525274 -149992.731426 24513.9651468 31544.4861832 13926.6551241 23771.8326973 -44956.1985445 -36442.1533861 -149618.203444 -12143.4900656 31312.071011 147436.502285 -1570.85372751 20908.8173273 46525.1548388 8173.02846508 -181424.257956 -129915.647009 185736.374649 -162141.486836 -203677.585238 -54284.7877444 -108975.427172 -109679.398826 14311.4618536 35871.5344153 29377.3985395 49471.7130703 -29727.9806355 -25867.5448589 -26294.6269229 -30920.7221367 -44352.236384 18323.5131592 48674.8937388 98035.881791 -16692.1175354 -27146.5329291 -114043.913142 174379.887593 143786.312785 -52538.536436 68383.4035543 -54592.7433427 -69784.3260923 -55441.8547795 38798.0292054 63546.3429941 157046.526579 128711.54577 102696.895876 52987.6765458 107006.202543 -107794.776583 -103557.235322 -31225.6278176 -60215.467746 35622.3199843 139472.011164 68800.3317269 -22586.2237784 -31765.5836621 -49302.3037653 -86315.8612868 -67335.3301898 -70721.7969823 -81630.1388602 -210088.85593 -202010.74309 125757.717978 80325.1717336 -36663.8358863 -53495.7420487 119198.757413 204583.120774 170786.973239 -19584.1411925 76523.9015928 118871.822197 20190.0923805 -39207.0628174 82420.0154892 -124783.885082 -177929.359893 -176653.700275 200812.115522 165811.813147 162228.521252 38532.8751914 29398.3438075 60049.0368888 -129532.251379 -108816.800841 -33025.1506376 -52159.6386752 -29259.2415519 -65454.5300451 11370.9728138 12190.0615521 464.205405198 -10733.7268426 1527.86091863 -13163.1960062 -432.720583122 -1099.4376098 -9937.72024892 -12285.3744127 -32419.8733773 -20906.9335475 -38097.0268396 -1461.07735201 -33555.1163645 -16999.7872216 -40506.1728173 -9864.36040962 34399.1309671 64563.9631107 -60511.6992985 -3836.89101964 31879.807147 150153.317592 -54945.6628436 63197.8465592 186041.886106 -154260.546151 -101041.349693 54820.8693868 -55385.0871947 -164442.462723 -201064.971804 -156383.072434 -84465.0037976 186973.497757 98985.2240051 88966.9293706 173288.505507 175878.810938 217229.364495 159218.089131 -31823.5443823 -48234.498404 -33673.8974362 -47675.5324717 -3557.95155777 -26843.7621713 -157511.791314 15455.5838546 35855.5908446 176219.017648 34577.9193218 36251.0402244 52095.6363772 54833.3288839 42581.9702651 -181920.513726 -196267.610115 -127163.53978 -167017.31489 -84099.1173157 125067.027588 113132.246756 88732.3921747 52535.3436844 153232.755899 143621.122482 -112953.835499 -60976.2400916 7250.03775319 -94546.8622982 -33724.3357093 98545.98971 43972.5790852 214266.132334 209140.283094 -195036.611315 -220734.03971 141012.183933 -118963.766451 165960.019512 202048.14882 107136.808136 28385.1676108 114923.505359 -33531.0816948 -66921.9413587 -133485.920095 15646.9648514 123887.517984 15924.8935239 40010.6704654 73721.9327244 200038.045323 188464.575703 -82595.322677 -34639.6289742 -17400.5553351 -75542.6951691 -88661.0170181 -96460.6752848 -36720.4866623 -96212.7716581 -108540.416462 -55589.3825904 -107915.569257 -123320.188093 -171602.453746 -157331.966199 -42517.2538912 38701.3702936 65970.0487428 66797.8704637 85188.8418183 -4053.25574359 45011.1362046 56404.4249543 26320.5241187 45292.874331 24959.7794322 28771.3779072 30822.7706393 25789.2562965 28455.1630185 10888.3820761 16717.2597851 2930.70214567 19136.1574233 -9849.72798414 58869.9704009 44602.306289 21066.2207275 135586.590184 157476.763293 102725.569835 117653.531402 65816.8223759 143464.294932 -53720.3838022 -109716.547309 -30682.0237291 -50212.7093127 -101111.571229 37994.2838432 70015.5873394 74514.8581052 -200211.425983 -204644.331114 -157236.508305 -55976.4275502 -43913.1824385 -13836.7954756 -14760.0004086 -18585.5387122 -31224.5044342 78109.7840752 52763.3328322 -22348.394964 22196.2167168 -75867.0648224 -17219.1388024 78848.7036011 34043.9976747 57596.6027331 -81864.8236191 -14143.7041925 -67398.3884276 -21605.7186976 68700.410506 23329.9863908 -53686.8706712 55626.5108375 -71001.8002857 -20010.5518808 71622.2767209 26930.7980278 -78470.7130804 -15829.5590149 -56411.4978624 -14339.2405352 58691.1126519 18303.9330054 4661.18061333 -1868.55660814 32226.690862 33071.5948503 -30925.4470505 -32138.9702364 -15882.1392396 6335.55041564 129.49010942 10059.2961685 -86058.2141024 -74033.8039626 -7361.17467824 -1849.84153738 -11111.614328 -15441.8040881 -7912.92003154 14498.2837765 6283.71140287 -34887.1232782 -29359.5418484 -79902.8593858 2562.62547753 1628.07154577 -1486.61750447 -673.763599893 17065.5940015 88882.05431 47435.6799819 73651.1041671 64731.7906912 -24326.6504144 -21048.7254466 88385.6723162 -85884.735792 39032.2013791 7076.20397831 -47430.9493878 -15849.0136617 -31004.9713959 26050.8828253 4451.4369053 54418.4118927 15288.6778072 -55036.3809804 -16920.7607521 66559.8960491 -66004.2343576 38076.5037674 15720.5553513 -45315.8304453 -21341.7086801 22892.2392858 5491.80772776 44320.6440715 16757.6696389 -45418.5175307 -19498.4324823 -1884.11238947 1344.9731378 -62841.130333 -43909.7697075 64287.2300215 44067.2801029 56318.5622973 -84873.4923414 -36392.8995163 -71162.2764754 4559.47133353 9265.24664663 87123.5967835 37626.7380349 73393.1080732 75417.4983344 34414.678452 -73527.8415233 -32623.358356 -471.994692646 4260.89954554 15483.3646347 316.948218291 220.339859268 260.514446265 775.551387691 -54169.6371268 -5635.46650004 -6627.40758514 -9359.78934509 -4006.50917181 -78100.1626911 -52675.6844812 21638.0039947 -21943.9040095 76427.0504129 17535.9584184 -78751.8424922 -33867.6249807 -57552.7332357 82461.5511114 14432.0940686 67529.7818118 21788.0969798 -68601.7404447 -23205.3797949 53158.548337 -55427.8861022 71486.5924323 20324.6013719 -71521.1093784 -26787.3374946 79058.547925 16185.0203947 56333.239993 14313.7425277 -58660.5923028 -18267.5561087 -4516.20663987 1759.78781482 -32142.026065 -33014.6776886 30111.6150377 31644.6049723 15265.2005588 -6110.02012674 -155.77995354 -9984.006683 86472.2917527 74312.5239806 7026.38093839 1673.26833632 10902.2252892 15119.1882452 7662.61819641 -14327.0260917 -6292.92638357 35135.2807767 29660.8030435 80375.2948034 -2603.79727807 -1873.83295668 1316.1714275 458.282569556 -17036.8261974 -88866.1930801 -47322.9305111 -73591.6870579 -64683.597517 24107.7034056 20903.3411732 -88349.5308143 86070.818887 -39401.2368067 -7308.64667855 47174.2341052 15596.5539288 30866.7102633 -26377.5289635 -4650.91975366 -54551.2842115 -15402.5985494 55028.9776514 16811.7826294 -66437.9913959 66283.1367659 -38306.5899756 -15942.886653 45036.9228862 21188.3098219 -23276.3947974 -5753.10509672 -44325.3102645 -16769.2383995 45534.2104072 19557.335548 1785.33512425 -1207.43134516 63151.5866373 44079.2756783 -64120.0663531 -43906.8569939 -56185.1168317 84972.1071805 36498.0421026 71238.1117441 -4752.92302632 -9436.32598196 -86945.1261194 -37485.3696389 -73172.4022773 -75321.3638028 -34306.2138822 73653.3074405 32747.5649612 326.776892512 -4423.61263577 -15655.7252577 -242.760560818 -33.259480695 -140.257180488 -629.747507402 54397.0065553 5651.42725508 6544.8900302 9406.15864757 3920.84689468 -24291.5366873 -26659.2357208 -35008.7688838 -38798.0740476 -40297.5298949 -42181.2160993 -72338.0940818 1014.76171517 -37561.2389027 -33909.1672172 -36367.455832 -34545.2458459 -47267.4608755 -13331.8317545 -13650.5808558 6519.01653994 -44461.1834213 -38697.4810676 -54065.7663607 -35952.9392978 -61895.81829 -40467.8380348 -36849.2541691 -13758.1916523 57227.095918 -80916.2947986 -80216.913952 -4400.99808017 44534.4086745 -50953.8235731 -91052.4472268 -65541.3944904 -10687.0189073 -72141.9092606 1743.46159617 -66000.641301 -68378.6533159 44377.2476941 53367.6872949 64179.0881823 21006.4538582 2704.93133035 22793.8557219 18235.9628696 57133.4239193 39123.3465804 25219.6913729 43889.0078403 68871.4668947 -8452.89196267 39765.2083648 59044.6661454 42945.9619481 63666.0944483 4298.06647975 13541.4455007 -5214.48405274 41110.8227362 14155.9199783 -58188.9064102 40422.9348134 37958.136152 2425.07382765 -47281.6852456 81612.2641729 80659.3594771 66404.2913189 9606.17792185 48425.4376273 92099.6326073 66239.1774105 69395.2591557 69684.4599466 -3841.66025517 12106.172456 25144.1723551 33153.0880788 35377.993029 47375.2779359 43003.2457437 73113.1731264 2499.28577955 37591.7958894 32034.8306781 35414.7151722 33680.7126333 46717.993805 5070.133548 12710.0378818 -11089.9362587 42464.3399224 41808.0436835 54660.2932856 36234.25696 62521.2999456 36865.6192648 37516.5947541 12035.9427077 -57739.0054788 81364.3828862 80653.7589332 3989.69732625 -44714.1846205 50481.3538822 95383.5963955 66080.0896185 10036.8109152 72146.8131164 -1536.69928995 66433.7620604 68832.9542266 -40619.8792109 -53217.5878373 -64045.416107 -19613.5642146 -10124.279488 -23502.1229962 -18789.7602138 -57609.5587496 -39374.6124945 -23209.043653 -43782.9327246 -68801.9474066 7494.25612978 -44875.9453835 -59064.5311469 -42223.1143963 -63684.6014837 -11870.8728024 -14167.3023325 511.808844897 -42316.7852311 -9701.79756833 60105.5178981 -41746.3608192 -36981.2784056 -2683.67540816 47071.8172394 -81425.4074389 -80421.6007815 -66163.1272862 -11660.4403931 -48749.7478365 -91445.5071695 -66250.2051904 -69352.9100513 -69896.3934504 3798.43355275 27568.0916895 36481.5474971 25582.9088041 42292.1984282 44898.7066009 74017.6614167 47484.5376295 2973.05213732 39591.7746217 38028.2785325 35911.6730876 47613.4855509 48757.0558001 13795.0870856 14599.2717803 44891.5596934 -6094.68080279 61064.5808214 38238.7291248 61921.9155071 36203.2613744 37279.4421122 36506.8272354 13379.438875 -59489.6857666 81513.6371965 78433.0473708 3796.5198849 -44653.6928447 50068.7642967 93611.8437007 65003.2935858 10434.2201458 71997.3070361 -1692.80579713 68002.8849065 68413.0826672 -51247.5041144 -62656.790164 -38544.6568721 -19005.8755726 -21496.9721554 -18772.280562 -19576.8822216 -62242.423589 -38780.1167365 -42547.7549311 -68355.3473049 -23920.9643466 7660.84653772 -56565.9803981 -39018.3532726 -60995.5151526 -38404.2655019 -15753.0719144 -13299.003658 -44026.9207269 1933.13349347 -10319.6760737 61248.2583996 -38113.9401325 -36237.0176704 1087.44934141 46952.1529167 -79083.2347176 -78371.5052412 -64266.6698557 -10136.6545237 -48742.8909095 -92484.4309597 -64126.5352648 -67225.8562431 -68602.6061824 2892.73317675 -27218.8874153 -35731.7562245 -24878.0164009 -38862.9367571 -44579.4819003 -73966.7214452 -41732.1699119 -410.681756417 -39386.5910151 -37759.8511214 -36367.537462 -42947.0159089 -51010.7015519 -13307.175704 -13600.2595541 -44310.3851256 6725.03563456 -61066.1827771 -41683.9981717 -62247.0444549 -38014.79846 -37774.7144493 -35999.2426775 -7273.79643377 59954.0631949 -81448.5852352 -78362.4033569 -3439.43188126 44937.3733911 -49630.8329086 -91181.0698918 -64750.8133921 -8883.02865995 -71278.9341944 2521.8713477 -67791.0334487 -67750.7125599 51585.0345146 62547.1910279 38649.811754 16960.5430586 20958.6537371 17987.9636231 9622.0382514 58305.9295782 38983.5999331 43242.7572042 69020.3370599 34374.6661923 -3696.95041796 56780.5181365 37310.8389209 61280.7784359 39692.5288077 15646.3148696 12245.7476138 44367.4816692 1371.88854413 9526.9846461 -60259.4785608 37637.6392566 35784.0937771 -1047.94081903 -46816.008796 79196.5547275 78460.4723724 64490.213792 9764.49765837 49108.3880958 92666.6310773 64186.7136863 67278.932279 68569.8523887 -3173.03959571</DataArray>