<?xml version="1.0" ?>
<VTKFile byte_order="LittleEndian" type="PolyData" version="0.1">
  <PolyData>
    <Piece NumberOfPoints="649" NumberOfPolys="1294">
      <Points>
        <DataArray NumberOfComponents="3" format="ascii" type="Float32">-7.50000026528e-08 0.0 -5.49999981558e-07 0.0 1.50000005306e-07 -5.49999981558e-07 7.50000026528e-08 0.0 -5.49999981558e-07 0.0 -1.50000005306e-07 -5.49999981558e-07 -1.24999999684e-07 0.0 -4.99999998738e-07 0.0 2.00000002337e-07 -4.99999998738e-07 1.24999999684e-07 0.0 -4.99999998738e-07 0.0 -2.00000002337e-07 -4.99999998738e-07 -1.24999999684e-07 0.0 4.99999998738e-07 0.0 2.00000002337e-07 4.99999998738e-07 1.24999999684e-07 0.0 4.99999998738e-07 0.0 -2.00000002337e-07 4.99999998738e-07 -7.50000026528e-08 0.0 5.49999981558e-07 0.0 1.50000005306e-07 5.49999981558e-07 7.50000026528e-08 0.0 5.49999981558e-07 0.0 -1.50000005306e-07 5.49999981558e-07 -7.15085590741e-08 4.52338682067e-08 -5.49999981558e-07 -6.03087286777e-08 8.91707898631e-08 -5.49999981558e-07 -3.84819820454e-08 1.28749945816e-07 -5.49999981558e-07 3.84819820454e-08 1.28749945816e-07 -5.49999981558e-07 6.03087286777e-08 8.91707898631e-08 -5.49999981558e-07 7.15085590741e-08 4.52338682067e-08 -5.49999981558e-07 7.15085590741e-08 -4.52338682067e-08 -5.49999981558e-07 6.03087286777e-08 -8.91707898631e-08 -5.49999981558e-07 3.84819820454e-08 -1.28749945816e-07 -5.49999981558e-07 -3.84819820454e-08 -1.28749945816e-07 -5.49999981558e-07 -6.03087286777e-08 -8.91707898631e-08 -5.49999981558e-07 -7.15085590741e-08 -4.52338682067e-08 -5.49999981558e-07 -1.22079754306e-07 4.29781685796e-08 -4.99999998738e-07 -1.13117927469e-07 8.51063788332e-08 -4.99999998738e-07 -9.74701706014e-08 1.25215379398e-07 -4.99999998738e-07 -7.39634202773e-08 1.61230573781e-07 -4.99999998738e-07 -4.11570226788e-08 1.88848119365e-07 -4.99999998738e-07 4.11570226788e-08 1.88848119365e-07 -4.99999998738e-07 7.39634202773e-08 1.61230573781e-07 -4.99999998738e-07 9.74701706014e-08 1.25215379398e-07 -4.99999998738e-07 1.13117927469e-07 8.51063788332e-08 -4.99999998738e-07 1.22079754306e-07 4.29781685796e-08 -4.99999998738e-07 1.22079754306e-07 -4.29781685796e-08 -4.99999998738e-07 1.13117927469e-07 -8.51063788332e-08 -4.99999998738e-07 9.74701706014e-08 -1.25215379398e-07 -4.99999998738e-07 7.39634202773e-08 -1.61230573781e-07 -4.99999998738e-07 4.11570226788e-08 -1.88848119365e-07 -4.99999998738e-07 -4.11570226788e-08 -1.88848119365e-07 -4.99999998738e-07 -7.39634202773e-08 -1.61230573781e-07 -4.99999998738e-07 -9.74701706014e-08 -1.25215379398e-07 -4.99999998738e-07 -1.13117927469e-07 -8.51063788332e-08 -4.99999998738e-07 -1.22079754306e-07 -4.29781685796e-08 -4.99999998738e-07 -1.22079754306e-07 4.29781685796e-08 4.99999998738e-07 -1.13117927469e-07 8.51063788332e-08 4.99999998738e-07 -9.74701706014e-08 1.25215379398e-07 4.99999998738e-07 -7.39634202773e-08 1.61230573781e-07 4.99999998738e-07 -4.11570226788e-08 1.88848119365e-07 4.99999998738e-07 4.11570226788e-08 1.88848119365e-07 4.99999998738e-07 7.39634202773e-08 1.61230573781e-07 4.99999998738e-07 9.74701706014e-08 1.25215379398e-07 4.99999998738e-07 1.13117927469e-07 8.51063788332e-08 4.99999998738e-07 1.22079754306e-07 4.29781685796e-08 4.99999998738e-07 1.22079754306e-07 -4.29781685796e-08 4.99999998738e-07 1.13117927469e-07 -8.51063788332e-08 4.99999998738e-07 9.74701706014e-08 -1.25215379398e-07 4.99999998738e-07 7.39634202773e-08 -1.61230573781e-07 4.99999998738e-07 4.11570226788e-08 -1.88848119365e-07 4.99999998738e-07 -4.11570226788e-08 -1.88848119365e-07 4.99999998738e-07 -7.39634202773e-08 -1.61230573781e-07 4.99999998738e-07 -9.74701706014e-08 -1.25215379398e-07 4.99999998738e-07 -1.13117927469e-07 -8.51063788332e-08 4.99999998738e-07 -1.22079754306e-07 -4.29781685796e-08 4.99999998738e-07 -7.15085590741e-08 4.52338682067e-08 5.49999981558e-07 -6.03087286777e-08 8.91707898631e-08 5.49999981558e-07 -3.84819820454e-08 1.28749945816e-07 5.49999981558e-07 3.84819820454e-08 1.28749945816e-07 5.49999981558e-07 6.03087286777e-08 8.91707898631e-08 5.49999981558e-07 7.15085590741e-08 4.52338682067e-08 5.49999981558e-07 7.15085590741e-08 -4.52338682067e-08 5.49999981558e-07 6.03087286777e-08 -8.91707898631e-08 5.49999981558e-07 3.84819820454e-08 -1.28749945816e-07 5.49999981558e-07 -3.84819820454e-08 -1.28749945816e-07 5.49999981558e-07 -6.03087286777e-08 -8.91707898631e-08 5.49999981558e-07 -7.15085590741e-08 -4.52338682067e-08 5.49999981558e-07 -1.10355337313e-07 0.0 -5.35355354714e-07 0.0 1.8535533286e-07 -5.35355354714e-07 1.10355337313e-07 0.0 -5.35355354714e-07 0.0 -1.8535533286e-07 -5.35355354714e-07 -1.10355337313e-07 0.0 5.35355354714e-07 0.0 1.8535533286e-07 5.35355354714e-07 1.10355337313e-07 0.0 5.35355354714e-07 0.0 -1.8535533286e-07 5.35355354714e-07 -1.24999999684e-07 0.0 -4.49999987495e-07 -1.24999999684e-07 0.0 -4.00000004674e-07 -1.24999999684e-07 0.0 -3.49999993432e-07 -1.24999999684e-07 0.0 -3.00000010611e-07 -1.24999999684e-07 0.0 -2.49999999369e-07 -1.24999999684e-07 0.0 -2.00000002337e-07 -1.24999999684e-07 0.0 -1.50000005306e-07 -1.24999999684e-07 0.0 -1.00000001169e-07 -1.24999999684e-07 0.0 -5.00000005843e-08 -1.24999999684e-07 0.0 -1.35504095737e-18 -1.24999999684e-07 0.0 5.00000005843e-08 -1.24999999684e-07 0.0 1.00000001169e-07 -1.24999999684e-07 0.0 1.50000005306e-07 -1.24999999684e-07 0.0 2.00000002337e-07 -1.24999999684e-07 0.0 2.49999999369e-07 -1.24999999684e-07 0.0 3.00000010611e-07 -1.24999999684e-07 0.0 3.49999993432e-07 -1.24999999684e-07 0.0 4.00000004674e-07 -1.24999999684e-07 0.0 4.49999987495e-07 0.0 2.00000002337e-07 -4.49999987495e-07 0.0 2.00000002337e-07 -4.00000004674e-07 0.0 2.00000002337e-07 -3.49999993432e-07 0.0 2.00000002337e-07 -3.00000010611e-07 0.0 2.00000002337e-07 -2.49999999369e-07 0.0 2.00000002337e-07 -2.00000002337e-07 0.0 2.00000002337e-07 -1.50000005306e-07 0.0 2.00000002337e-07 -1.00000001169e-07 0.0 2.00000002337e-07 -5.00000005843e-08 0.0 2.00000002337e-07 -1.35504095737e-18 0.0 2.00000002337e-07 5.00000005843e-08 0.0 2.00000002337e-07 1.00000001169e-07 0.0 2.00000002337e-07 1.50000005306e-07 0.0 2.00000002337e-07 2.00000002337e-07 0.0 2.00000002337e-07 2.49999999369e-07 0.0 2.00000002337e-07 3.00000010611e-07 0.0 2.00000002337e-07 3.49999993432e-07 0.0 2.00000002337e-07 4.00000004674e-07 0.0 2.00000002337e-07 4.49999987495e-07 1.24999999684e-07 0.0 -4.49999987495e-07 1.24999999684e-07 0.0 -4.00000004674e-07 1.24999999684e-07 0.0 -3.49999993432e-07 1.24999999684e-07 0.0 -3.00000010611e-07 1.24999999684e-07 0.0 -2.49999999369e-07 1.24999999684e-07 0.0 -2.00000002337e-07 1.24999999684e-07 0.0 -1.50000005306e-07 1.24999999684e-07 0.0 -1.00000001169e-07 1.24999999684e-07 0.0 -5.00000005843e-08 1.24999999684e-07 0.0 -1.35504095737e-18 1.24999999684e-07 0.0 5.00000005843e-08 1.24999999684e-07 0.0 1.00000001169e-07 1.24999999684e-07 0.0 1.50000005306e-07 1.24999999684e-07 0.0 2.00000002337e-07 1.24999999684e-07 0.0 2.49999999369e-07 1.24999999684e-07 0.0 3.00000010611e-07 1.24999999684e-07 0.0 3.49999993432e-07 1.24999999684e-07 0.0 4.00000004674e-07 1.24999999684e-07 0.0 4.49999987495e-07 0.0 -2.00000002337e-07 -4.49999987495e-07 0.0 -2.00000002337e-07 -4.00000004674e-07 0.0 -2.00000002337e-07 -3.49999993432e-07 0.0 -2.00000002337e-07 -3.00000010611e-07 0.0 -2.00000002337e-07 -2.49999999369e-07 0.0 -2.00000002337e-07 -2.00000002337e-07 0.0 -2.00000002337e-07 -1.50000005306e-07 0.0 -2.00000002337e-07 -1.00000001169e-07 0.0 -2.00000002337e-07 -5.00000005843e-08 0.0 -2.00000002337e-07 -1.35504095737e-18 0.0 -2.00000002337e-07 5.00000005843e-08 0.0 -2.00000002337e-07 1.00000001169e-07 0.0 -2.00000002337e-07 1.50000005306e-07 0.0 -2.00000002337e-07 2.00000002337e-07 0.0 -2.00000002337e-07 2.49999999369e-07 0.0 -2.00000002337e-07 3.00000010611e-07 0.0 -2.00000002337e-07 3.49999993432e-07 0.0 -2.00000002337e-07 4.00000004674e-07 0.0 -2.00000002337e-07 4.49999987495e-07 -1.16908189034e-22 -1.91685313884e-21 -5.49999981558e-07 -5.46846701255e-09 5.00337264953e-08 -5.49999981558e-07 5.46846701255e-09 -5.00337264953e-08 -5.49999981558e-07 -6.20321516376e-10 1.05059022815e-07 -5.49999981558e-07 6.20321516376e-10 -1.05059022815e-07 -5.49999981558e-07 -4.08206055624e-08 5.62385409353e-08 -5.49999981558e-07 4.08206055624e-08 -5.62385409353e-08 -5.49999981558e-07 3.79462719025e-08 -1.92274320909e-08 -5.49999981558e-07 -3.79462719025e-08 1.92274320909e-08 -5.49999981558e-07 3.31817453514e-08 7.5731485083e-08 -5.49999981558e-07 -3.31817453514e-08 -7.5731485083e-08 -5.49999981558e-07 -2.9002917401e-08 8.54708019915e-08 -5.49999981558e-07 2.9002917401e-08 -8.54708019915e-08 -5.49999981558e-07 3.53613529569e-08 2.52952752078e-08 -5.49999981558e-07 -3.53613529569e-08 -2.52952752078e-08 -5.49999981558e-07 -1.16908189034e-22 -1.91685313884e-21 5.49999981558e-07 -5.46846701255e-09 5.00337264953e-08 5.49999981558e-07 5.46846701255e-09 -5.00337264953e-08 5.49999981558e-07 -6.20321516376e-10 1.05059022815e-07 5.49999981558e-07 6.20321516376e-10 -1.05059022815e-07 5.49999981558e-07 -4.08206055624e-08 5.62385409353e-08 5.49999981558e-07 4.08206055624e-08 -5.62385409353e-08 5.49999981558e-07 3.79462719025e-08 -1.92274320909e-08 5.49999981558e-07 -3.79462719025e-08 1.92274320909e-08 5.49999981558e-07 3.31817453514e-08 7.5731485083e-08 5.49999981558e-07 -3.31817453514e-08 -7.5731485083e-08 5.49999981558e-07 -2.9002917401e-08 8.54708019915e-08 5.49999981558e-07 2.9002917401e-08 -8.54708019915e-08 5.49999981558e-07 3.53613529569e-08 2.52952752078e-08 5.49999981558e-07 -3.53613529569e-08 -2.52952752078e-08 5.49999981558e-07 -8.24717787395e-08 1.50292777334e-07 -2.63718874294e-07 -7.75635129457e-08 1.56840002319e-07 -2.10379283772e-07 -7.92520324921e-08 1.5466395098e-07 -1.50828100232e-07 -7.45080441789e-08 1.60587333653e-07 -8.89702960194e-08 -7.03929501356e-08 1.65271814012e-07 -3.83416221439e-07 -8.08624704973e-08 1.52515013951e-07 -3.58615288576e-08 -8.19417280695e-08 1.51033162865e-07 2.20169596332e-07 -8.24408914468e-08 1.50336148863e-07 2.72938677881e-07 -7.
[...]
      <CellData>
        <DataArray Name="rho_e_real" format="ascii" type="Float32">-10551.3754534 10395.5783473 9953.71784159 -10103.008546 -5985.02844378 5793.67363088 -4035.85131122 3873.11166136 -10754.2704097 -4753.83545834 10585.0748304 4607.86838892 15681.9382762 2743.19781273 -15871.0790875 -2896.06271611 -4684.97994053 -10758.3404474 -5440.72580563 4518.77644008 10586.4192578 5282.82973282 -6019.69638373 5819.4928703 9754.80544433 15520.2931648 10403.9194492 16239.4626259 -9961.09227162 -15708.3056183 -10590.1839924 -16419.7264366 -11535.3185184 -13080.4043771 11358.2765612 12892.4488468 -14617.5963229 -22201.1359718 -7428.8035941 -17668.9390429 14410.1884306 22003.4512619 7236.74617319 17477.2081675 -10519.0779589 10202.8898058 10029.1121961 -10343.8187774 -6256.02060857 5910.73139769 -4189.92062559 3902.86875693 -11020.7619861 -4977.94767866 10685.5730105 4689.84198878 15554.8290831 2583.96250994 -15897.6810797 -2871.5597164 -4599.1042912 -10702.3539397 -5386.38296769 4298.10797057 10406.4918895 5102.96639527 -6093.08617264 5750.47393107 9520.62156401 15307.5396083 10283.9820163 16072.5903535 -9864.98502232 -15623.4441087 -10586.729882 -16373.0146521 -11637.0582316 -13122.4051391 11341.1968378 12811.0780192 -14589.1517527 -22160.8833665 -7506.79903202 -17685.2033992 14249.3747289 21840.1625553 7195.22440376 17377.0194325 -249541.988243 -249796.019777 -188428.429206 -238959.781614 -190354.844189 -250433.419799 28806.2809583 39311.2466365 -33644.7705541 -33769.0208173 520282.967583 192376.00459 -144157.569801 -146996.27514 -466602.504628 -465739.002075 -229865.65174 -246144.700316 -278090.403595 -229652.241607 -245916.900674 -277763.723253 37478.3409106 -471253.0637 -471028.724669 54049.5461447 -487200.207405 -455910.913127 -485524.975357 -448930.711893 -385376.339657 -393221.490146 -384882.826844 -392649.943879 -26371.9278585 -28840.8501083 -13584.647223 -17567.9899091 -442226.480449 -441900.807684 -329539.256576 -294879.196305 -329896.724222 -295333.647872 -138075.179046 -45120.0479161 -138646.753695 -25204.1707635 -442490.061817 -445716.930886 26325.496608 30748.2718324 3530.35618798 72268.189949 34459.8200242 143039.093217 163515.071643 454656.333097 488271.12864 255664.345704 519693.029273 -275334.383323 -334167.659342 -257306.995374 -326906.887677 169274.457388 189035.2819 382083.195323 481011.507317 440701.931064 548110.247605 522187.630679 326606.070088 343741.502769 37854.5131809 99245.5047482 -27695.0751907 -72113.2549033 -20678.7379562 -28713.7451481 -71870.7167278 -22739.5563177 216548.335593 238260.726392 -189991.45557 -144703.027191 -196038.00493 -189807.87396 -144500.008749 -195862.121818 329556.574247 95948.206971 84811.1833326 77419.8821762 66347.9001556 282753.935242 404845.330487 -52637.9044516 -76377.5298011 -101313.353917 -52654.6442893 -76322.6940575 -101261.06444 -279530.892765 -334285.999879 -361669.125897 -278825.730095 -334736.772933 -361764.031789 -133798.554223 -138274.356067 -111172.8029 -176723.167488 -75864.3502794 -71777.180786 -111365.225122 -176927.53053 -74451.1005435 -61220.8542722 196808.08328 143277.782031 152511.215974 16835.7622571 -115148.965257 -11675.7163646 -99010.9169224 -76155.4331618 34454.767674 332354.173085 418799.615344 382716.663438 441712.238838 189237.590644 389464.809915 415302.052459 312398.508011 311642.378711 -193102.556202 -60582.2771925 -25301.4519379 -89302.3563464 -192858.649254 -73826.6015803 -62926.6444887 -402940.669307 -361128.888287 -399872.298935 -367521.810901 15559.3437787 68238.0701764 20338.1093108 -396400.48861 -412808.890426 60013.7093787 252403.236517 126518.767201 -2640.66390849 22861.3712795 386967.117572 -125390.353636 -66403.4955049 -125314.940737 -66412.8946478 68853.3153108 -3632.60250964 17444.0873126 -205791.28502 -302300.716894 438026.737902 457005.889227 358643.343164 519864.483413 502880.057579 470471.57639 231627.018506 235448.643306 303799.224462 135851.035642 246183.776422 199413.144969 44141.7812316 104142.705226 210580.104558 17156.2727429 58255.447694 267563.558522 307383.277653 400832.788516 66733.5987658 109799.617441 11523.7689938 69504.5509484 -267913.010997 -234825.822441 -315439.264607 -380375.391662 -338702.466945 -365240.901625 133590.300375 133864.370553 113491.947613 186908.819574 -382073.693732 -399370.748931 -366714.691345 -387850.317562 170077.862035 58735.93776 101289.264799 -235999.893921 -251150.647283 -317634.076265 -287336.843043 254536.643538 173400.378883 89273.1530484 139349.207356 72378.0852395 296899.467888 251330.115934 350572.241416 292233.268603 273641.451684 359311.403635 298850.529413 601162.754074 570623.111364 382225.270904 573814.405125 565933.553753 544275.861443 501900.065876 443595.102991 496229.271213 471780.206221 442015.273423 590777.418305 596980.3416 565318.875402 570483.990845 335978.412093 349146.471938 340680.031136 231865.488599 170298.698542 253880.543102 545046.004718 525028.88977 488383.898201 431470.301226 502140.198056 439524.465861 249327.19629 249573.378536 188371.035194 237819.064878 190134.61194 250236.727917 -110286.669162 -21252.9558472 -77300.6490228 -38265.047176 -165527.060936 33615.8218523 33549.6116955 -516944.578984 -192914.919307 143602.824144 146778.971938 466244.111604 465370.8207 229434.225686 245817.241989 277573.857585 229035.856585 245410.162048 277110.249909 -38801.4033854 470996.107158 470853.304618 486955.663224 455670.038847 485267.839495 448695.936622 384899.552887 392819.369414 384336.991595 392203.682368 24556.513262 28975.6956433 -3619.60193482 11840.3558843 -18028.6201481 441953.783191 441702.049854 328982.216893 294466.509979 329462.646546 295004.085002 138321.32943 47336.7197957 138440.274284 24961.544997 442334.978349 445490.383591 -39762.4993705 -68225.42015 -48091.2788889 -3621.09512783 -72825.61704 -34694.0567423 -415895.077421 -489085.463638 -142436.672629 -164153.340713 -478599.218087 -267369.039391 275115.603527 333944.160743 256603.744232 326488.481011 -411230.753115 -182106.123819 -187627.008325 -543270.813138 -202602.276305 -125276.920671 -195056.982176 -132345.906778 -340895.179707 -274300.649329 -299262.407393 -281774.820493 -37989.5043505 -99645.7999439 -24814.4940824 -73662.5124436 -324955.719642 -256583.174364 27646.6540038 71893.582064 20500.9773762 27811.8849497 72010.7335428 14940.8106397 189745.030946 144487.373258 195751.986184 189579.602724 144330.82293 195473.871527 -69537.9224573 -69273.1614542 -383333.564057 52351.268135 76140.8137418 100985.862221 52251.1341035 76050.7961576 100776.113295 279289.142779 333893.352718 361312.669021 278581.370919 334464.102568 361460.220543 133610.798755 135786.589897 44080.6098276 57731.7111989 110961.360098 176522.748202 75731.6805241 71370.7938705 111403.823277 176930.752807 75336.4044037 74285.85647 -200420.021789 -144573.263529 -152881.62141 -17129.2802232 114921.540644 11298.9839699 -333694.047533 -392968.428679 -440175.603178 -159673.971599 -108494.441359 -194941.487621 192890.162956 60298.7597414 24987.3638327 89062.9984403 190874.129016 61099.9921579 58011.97698 402802.744643 360578.5434 399605.061966 367286.004449 -60578.490108 -16863.2243832 395890.061204 412585.808299 -34239.0687497 621.101598775 -21785.3997978 124897.49413 65995.1411515 124620.648572 65796.9528142 -61714.0488174 -70930.2870788 1701.51875481 -16088.0107445 201967.348024 300857.885195 -345024.426088 -143069.964002 -261967.021813 -231795.070278 -245647.912629 -298936.447785 -96187.626034 -57650.4407353 -115680.92349 -301148.911205 -297614.502481 266812.029726 228508.812184 314538.27431 379863.736495 337478.736537 -224142.479616 -324046.364263 365038.775475 -152228.972075 -134235.642758 -177469.551479 -137406.632673 -122508.553275 381731.729825 398999.566457 366516.427666 387645.27041 -292846.812132 -209914.631045 -54051.1996896 -93458.7440342 235795.924872 250967.166552 317437.161724 287159.000348 -230559.726973 -186390.666782 -173641.98142 -548089.250059 -551125.200697 -64453.4092333 -221863.722189 -259559.418786 -120783.358347 -568480.56135 -577341.926906 -544523.691036 -500717.829593 -491123.953082 -238085.652339 -281342.643309 -426500.680775 -455029.197868 -395140.560733 -387216.422059 -598494.938096 -591708.919843 -556577.199113 -585971.836754 -53610.8005637 -139727.354509 -395125.516876 -473567.944882 -521834.420295 -409715.610018 -471119.59534 -377162.178728 -398954.718776 -316417.759137 -377235.264924 -499364.007923 -523933.921172 -528848.837789 -566198.432064 -461691.856905 -512881.267118 -530999.132149 -432636.308709 -451916.910251 -385295.249928 -280653.284012 -396813.474351 -342881.865668 -292845.163072 -346764.891142 -290685.724435 -281421.054007 249605.268315 249588.221286 188571.07148 238037.065264 190160.678269 250249.834821 -110290.336657 -21232.4237157 -76914.0608776 -39318.5188191 -165511.035503 33683.7133083 33540.9138528 -516838.245857 -192861.45018 143759.70076 146801.391174 466250.544153 465581.508583 229486.378837 245836.274083 277678.654309 229485.353485 245810.003956 277576.360978 -38410.0588022 470941.105152 470930.891267 486902.101462 455653.602922 485258.709818 448715.128946 385013.15853 392928.038523 384732.504285 392553.478052 24565.0521936 29002.5241291 -3457.63534819 11994.6789454 -17864.3822938 441939.11752 441868.785676 329414.788423 294805.493002 329561.224154 295055.632276 138519.864105 47473.8655345 138456.924431 24995.1612775 442409.947231 445455.87645 -39621.1421966 -68121.8442507 -47975.4333823 -3616.0200838 -72807.6079288 -34659.9229651 -415862.874964 -488979.877122 -142421.246953 -164106.429332 -478399.776802 -267316.029204 275133.621814 333965.490919 256775.417467 326707.028029 -411155.982678 -182040.113536 -187539.708365 -543265.620662 -202601.214329 -125235.547483 -194991.148894 -132297.052215 -340895.4692 -274265.44314 -299202.187603 -281745.004938 -37992.9798242 -99611.0640502 -24807.7567374 -73583.1563853 -324918.901954 -256543.749471 27628.0831836 71875.6039446 20402.5290152 28059.9917916 72029.6199232 14807.9289549 189759.320803 144480.119157 195773.082062 189832.447642 144597.380731 195819.346448 -69579.0815189 -69255.2150267 -383300.955256 52342.0903902 76124.5963926 100978.0063 52507.0244734 76219.9980673 101081.67446 279534.223166 334215.702272 361586.835969 278608.236042 334495.765192 361504.543577 133608.247528 135800.768683 44136.1642786 57811.8928494 110983.647567 176510.564223 75752.0734814 71359.2555508 111530.601865 177183.116859 75490.8641766 74558.2894499 -200420.80664 -144552.115374 -152864.966189 -17110.7759677 114937.73825 11312.4573457 -333505.877992 -392917.257733 -439926.55702 -159307.859604 -108851.079777 -194962.884371 192912.596123 60314.1219136 25024.0854155 89075.7921273 191036.180467 61257.6575763 58119.7222564 403030.466772 360759.217525 399633.96086 367295.914826 -60649.606536 -17014.6422832 396011.20104 412589.879526 -34074.8729122 1281.27643674 -21134.6992193 124932.375814 66013.6373686 125051.706302 66188.19806 -62908.8782044 -70537.0617914 1902.35285262 -16264.746643 202064.557181 301007.794493 -344957.243979 -142628.815917 -261843.521743 -231757.606569 -245598.106558 -298844.515821 -96110.0226168 -57433.5187533 -115554.289936 -301100.622462 -297563.424859 266832.620454 228577.737488 314632.759965 379961.554582 337533.681977 -224206.364629 -324082.760066 365035.297208 -152141.88762 -134135.44598 -177396.012269 -137309.451332 -121670.934524 381751.540166 399039.236594 366514.808267 387645.98802 -292786.27093 -209589.252387 -55037.2805838 -93626.1014995 235805.80472 250978.761716 317454.120978 287157.103119 -230529.801081 -186283.040925 -174026.325303 -547966.935023 -551015.037402 -63608.7382514 -222048.027751 -259839.881293 -123337.990391 -568444.801408 -577277.400808 -544474.52852 -500683.319187 -491008.926244 -237943.148985 -281013.509824 -426353.75351 -455028.79168 -395106.20122 -387191.381314 -598490.62523 -591660.484119 -556501.092767 -585964.516264 -57246.1151312 -139694.354837 -395085.608454 -473515.59662 -521765.876835 -409659.131887 -471087.856719 -376901.103352 -398706.731099 -316306.415177 -377086.236609 -499303.058483 -523879.925186 -528748.272037 -566196.499007 -461485.300095 -512697.796717 -530849.507844 -432432.231545 -451903.270812 -385250.062119 -280625.320243 -396753.358372 -342882.885821 -292820.416634 -346608.841028 -289926.559648 -281180.790803 -249652.32203 -249792.541541 -188685.160834 -238136.950105 -190303.089045 -250388.621242 110487.156998 21316.3888511 77218.19632 39576.5888825 165743.625658 -33783.918604 -33784.6288293 517066.528035 193079.366141 -143904.303603 -146877.909078 -466621.783745 -465695.273948 -229845.688871 -246141.151663 -278004.900365 -229394.534364 -245735.588367 -277466.128598 38468.152335 -471324.758138 -471133.196596 -487265.402865 -455923.796526 -485513.508048 -448906.617115 -385287.206331 -393143.556927 -384675.476834 -392505.821749 -24537.8058252 -28980.4507948 3350.81496835 -12091.3069516 17804.4549482 -442258.35706 -441982.822166 -329318.879983 -294790.173021 -329829.164253 -295315.742385 -138634.307624 -47609.1933576 -138516.761827 -24985.1711441 -442581.622486 -445757.853835 39559.3593091 68038.3817601 47851.3976059 3684.12994206 72904.5095261 34719.550604 416112.968086 489248.273649 142597.767745 164268.383705 478659.389971 267577.178945 -275296.058021 -334163.150112 -256911.281467 -326789.39582 411373.643811 182087.936537 187626.660702 541433.04343 205900.284755 125606.227417 194926.334763 131963.596551 345132.414751 275298.833033 299536.819873 282039.497454 37890.9612655 99666.1247692 24908.673495 73384.0878331 325136.592917 256650.915047 -27726.8556218 -72082.1358119 -20430.2122976 -28193.8894673 -72105.2218404 -14960.4245326 -189986.861367 -144720.531037 -196060.014776 -189885.320616 -144646.616953 -195806.454477 69719.5275981 69371.4575308 383547.489743 -52670.1457497 -76390.4652417 -101324.968047 -52523.1245431 -76291.529371 -101058.983284 -279591.96108 -334205.609568 -361609.026131 -278811.339264 -334735.133085 -361743.262233 -133742.360057 -135547.751553 -46278.4604528 -58104.5927614 -111140.066386 -176669.399608 -75803.8107214 -71407.8136887 -111655.242102 -177243.777519 -75623.2216845 -74665.693792 200619.922007 144484.533538 152934.286655 17025.8145657 -115038.111437 -11322.1039584 333787.609517 393159.724465 440194.371427 159617.854974 109129.989137 195240.017221 -193001.440253 -60307.1280069 -25033.6481433 -89125.3222326 -191216.097445 -61382.8619607 -58328.4701302 -403085.820277 -360851.714219 -399872.316666 -367520.229519 60853.6370266 17183.5086267 -396152.959178 -412825.645191 33995.1859278 -1411.32472445 21031.5053593 -125359.560085 -66408.9401136 -124963.826273 -66118.5345139 63216.2979136 70859.6165168 -1861.38822349 16363.0985513 -202332.737605 -301173.457249 345384.774038 142934.240433 262172.581015 231986.950227 245754.101673 299089.95189 96078.0977958 57432.8248786 115577.623503 301290.069328 297749.729093 -267107.368039 -228887.383906 -314807.160776 -380119.743236 -337730.166671 224367.772272 324261.417991 -365235.343002 152201.247022 134095.60281 177419.330735 137312.212297 121880.529003 -381954.351335 -399239.58937 -366706.862333 -387859.239505 293008.960444 209772.558079 55195.2650278 93736.9826546 -235938.277777 -251116.90679 -317616.006625 -287323.85022 230653.788515 186357.550349 174154.499077 548046.947134 551499.607142 63853.4973149 222297.915877 260115.404335 123616.630781 568839.439756 577467.507332 544742.598375 501163.233178 491373.194114 238216.643458 281278.262988 426747.032284 452894.436667 395780.508995 387529.759211 599587.642879 594744.599142 558405.539849 573336.898936 57550.5698326 139991.297708 395331.743609 473774.431515 522058.444787 410019.135185 471534.951983 377198.411008 398973.263842 316574.827799 377354.02914 498616.99516 522976.969433 529505.117589 567186.160354 461735.716545 512877.621255 531021.704399 432686.636521 446950.588584 386283.744439 280911.39998 397412.764699 339896.054738 293052.877966 346878.037883 290201.36498 281458.051864 -358014.084723 -129713.516912 -196895.866592 -346544.654143 -328498.351415 -337602.760356 -263836.168787 -68126.5725965 -153884.840531 -54345.5538563 -67791.3726223 -212575.58471 -103267.249181 -175442.282619 -144085.832339 -102447.741021 -175813.436501 -489705.729564 -424851.910866 -341647.254257 -147187.983912 -337165.820437 -478510.138729 -369908.129136 357531.997224 130197.061487 197014.33428 346469.377402 327965.298799 336761.423331 263142.757975 67998.0352388 153136.011639 53902.5718275 67105.089378 212062.25136 102644.478255 173446.751613 140650.779258 106917.438401 176226.865809 489601.454015 424746.53586 341786.285409 148642.950454 337255.265395 478306.835209 369781.160488 357819.894452 129497.32383 196661.13419 346333.633071 328306.000684 337404.166375 263612.93507 67936.4076691 153693.343928 54112.041089 67484.8666573 212330.035626 102993.420302 175234.863769 143891.676798 102203.823862 175561.36374 489471.88553 424595.982935 341348.217982 146937.138924 336899.688684 478238.790629 369666.238553 -357835.821111 -130444.930997 -197293.393917 -346766.01511 -328297.1259 -337082.648497 -263481.387775 -68213.5409366 -153383.407224 -54159.2093334 -67453.6362232 -212406.827391 -102972.365381 -173700.662901 -140886.94346 -107168.087994 -176498.688435 -489898.380581 -425030.653939 -342091.987011 -148912.634215 -337568.289822 -478623.934728 -370075.355984 -358638.909522 -130151.854316 -347206.850539 -197374.758187 -338186.520012 -329028.718612 -264252.82388 -68405.2538963 -154278.48224 -54584.9259862 -67911.7780209 -212937.68081 -103408.901715 -175851.199371 -144489.037612 -102852.030827 -176296.177067 -489896.931746 -425469.846536 -342433.003056 -147645.742321 -337914.140856 -479724.708373 -370663.526117 358053.785618 130342.599878 346963.744928 197208.353003 337201.259611 328426.595714 263535.658481 67940.0344092 153235.352153 53830.4289803 67213.685193 212363.418373 102824.614316 173590.740341 140729.708115 107107.651996 176479.949532 489631.655463 425195.058835 342425.794028 148883.894156 337773.893937 479444.421903 370427.606743 358256.559804 129759.107572 346805.267057 196927.636197 337760.061528 328608.282107 263791.385462 68002.5438849 153863.453478 54101.6303597 67355.3253844 212434.583651 102911.58166 175429.704799 144100.165687 102438.240897 175879.810412 489492.013325 425071.920129 341946.349418 147211.464077 337451.799009 479312.528173 370247.26549 -358455.732395 -130743.798353 -347384.371739 -197653.845322 -337651.12692 -328870.313969 -264007.351621 -68346.6749963 -153659.045783 -54317.3164957 -67780.6210555 -212877.644475 -103327.172332 -174009.213958 -141127.232405 -107515.534696 -176911.871219 -490049.535006 -425610.250564 -342901.105213 -149315.993111 -338248.86351 -479870.709601 -370841.873368</DataArray>