<?xml version="1.0" ?>
<VTKFile byte_order="LittleEndian" type="PolyData" version="0.1">
  <PolyData>
    <Piece NumberOfPoints="649" NumberOfPolys="1294">
      <Points>
        <DataArray NumberOfComponents="3" format="ascii" type="Float32">-7.50000026528e-08 0.0 -5.49999981558e-07 0.0 1.50000005306e-07 -5.49999981558e-07 7.50000026528e-08 0.0 -5.49999981558e-07 0.0 -1.50000005306e-07 -5.49999981558e-07 -1.24999999684e-07 0.0 -4.99999998738e-07 0.0 2.00000002337e-07 -4.99999998738e-07 1.24999999684e-07 0.0 -4.99999998738e-07 0.0 -2.00000002337e-07 -4.99999998738e-07 -1.24999999684e-07 0.0 4.99999998738e-07 0.0 2.00000002337e-07 4.99999998738e-07 1.24999999684e-07 0.0 4.99999998738e-07 0.0 -2.00000002337e-07 4.99999998738e-07 -7.50000026528e-08 0.0 5.49999981558e-07 0.0 1.50000005306e-07 5.49999981558e-07 7.50000026528e-08 0.0 5.49999981558e-07 0.0 -1.50000005306e-07 5.49999981558e-07 -7.15085590741e-08 4.52338682067e-08 -5.49999981558e-07 -6.03087286777e-08 8.91707898631e-08 -5.49999981558e-07 -3.84819820454e-08 1.28749945816e-07 -5.49999981558e-07 3.84819820454e-08 1.28749945816e-07 -5.49999981558e-07 6.03087286777e-08 8.91707898631e-08 -5.49999981558e-07 7.15085590741e-08 4.52338682067e-08 -5.49999981558e-07 7.15085590741e-08 -4.52338682067e-08 -5.49999981558e-07 6.03087286777e-08 -8.91707898631e-08 -5.49999981558e-07 3.84819820454e-08 -1.28749945816e-07 -5.49999981558e-07 -3.84819820454e-08 -1.28749945816e-07 -5.49999981558e-07 -6.03087286777e-08 -8.91707898631e-08 -5.49999981558e-07 -7.15085590741e-08 -4.52338682067e-08 -5.49999981558e-07 -1.22079754306e-07 4.29781685796e-08 -4.99999998738e-07 -1.13117927469e-07 8.51063788332e-08 -4.99999998738e-07 -9.74701706014e-08 1.25215379398e-07 -4.99999998738e-07 -7.39634202773e-08 1.61230573781e-07 -4.99999998738e-07 -4.11570226788e-08 1.88848119365e-07 -4.99999998738e-07 4.11570226788e-08 1.88848119365e-07 -4.99999998738e-07 7.39634202773e-08 1.61230573781e-07 -4.99999998738e-07 9.74701706014e-08 1.25215379398e-07 -4.99999998738e-07 1.13117927469e-07 8.51063788332e-08 -4.99999998738e-07 1.22079754306e-07 4.29781685796e-08 -4.99999998738e-07 1.22079754306e-07 -4.29781685796e-08 -4.99999998738e-07 1.13117927469e-07 -8.51063788332e-08 -4.99999998738e-07 9.74701706014e-08 -1.25215379398e-07 -4.99999998738e-07 7.39634202773e-08 -1.61230573781e-07 -4.99999998738e-07 4.11570226788e-08 -1.88848119365e-07 -4.99999998738e-07 -4.11570226788e-08 -1.88848119365e-07 -4.99999998738e-07 -7.39634202773e-08 -1.61230573781e-07 -4.99999998738e-07 -9.74701706014e-08 -1.25215379398e-07 -4.99999998738e-07 -1.13117927469e-07 -8.51063788332e-08 -4.99999998738e-07 -1.22079754306e-07 -4.29781685796e-08 -4.99999998738e-07 -1.22079754306e-07 4.29781685796e-08 4.99999998738e-07 -1.13117927469e-07 8.51063788332e-08 4.99999998738e-07 -9.74701706014e-08 1.25215379398e-07 4.99999998738e-07 -7.39634202773e-08 1.61230573781e-07 4.99999998738e-07 -4.11570226788e-08 1.88848119365e-07 4.99999998738e-07 4.11570226788e-08 1.88848119365e-07 4.99999998738e-07 7.39634202773e-08 1.61230573781e-07 4.99999998738e-07 9.74701706014e-08 1.25215379398e-07 4.99999998738e-07 1.13117927469e-07 8.51063788332e-08 4.99999998738e-07 1.22079754306e-07 4.29781685796e-08 4.99999998738e-07 1.22079754306e-07 -4.29781685796e-08 4.99999998738e-07 1.13117927469e-07 -8.51063788332e-08 4.99999998738e-07 9.74701706014e-08 -1.25215379398e-07 4.99999998738e-07 7.39634202773e-08 -1.61230573781e-07 4.99999998738e-07 4.11570226788e-08 -1.88848119365e-07 4.99999998738e-07 -4.11570226788e-08 -1.88848119365e-07 4.99999998738e-07 -7.39634202773e-08 -1.61230573781e-07 4.99999998738e-07 -9.74701706014e-08 -1.25215379398e-07 4.99999998738e-07 -1.13117927469e-07 -8.51063788332e-08 4.99999998738e-07 -1.22079754306e-07 -4.29781685796e-08 4.99999998738e-07 -7.15085590741e-08 4.52338682067e-08 5.49999981558e-07 -6.03087286777e-08 8.91707898631e-08 5.49999981558e-07 -3.84819820454e-08 1.28749945816e-07 5.49999981558e-07 3.84819820454e-08 1.28749945816e-07 5.49999981558e-07 6.03087286777e-08 8.91707898631e-08 5.49999981558e-07 7.15085590741e-08 4.52338682067e-08 5.49999981558e-07 7.15085590741e-08 -4.52338682067e-08 5.49999981558e-07 6.03087286777e-08 -8.91707898631e-08 5.49999981558e-07 3.84819820454e-08 -1.28749945816e-07 5.49999981558e-07 -3.84819820454e-08 -1.28749945816e-07 5.49999981558e-07 -6.03087286777e-08 -8.91707898631e-08 5.49999981558e-07 -7.15085590741e-08 -4.52338682067e-08 5.49999981558e-07 -1.10355337313e-07 0.0 -5.35355354714e-07 0.0 1.8535533286e-07 -5.35355354714e-07 1.10355337313e-07 0.0 -5.35355354714e-07 0.0 -1.8535533286e-07 -5.35355354714e-07 -1.10355337313e-07 0.0 5.35355354714e-07 0.0 1.8535533286e-07 5.35355354714e-07 1.10355337313e-07 0.0 5.35355354714e-07 0.0 -1.8535533286e-07 5.35355354714e-07 -1.24999999684e-07 0.0 -4.49999987495e-07 -1.24999999684e-07 0.0 -4.00000004674e-07 -1.24999999684e-07 0.0 -3.49999993432e-07 -1.24999999684e-07 0.0 -3.00000010611e-07 -1.24999999684e-07 0.0 -2.49999999369e-07 -1.24999999684e-07 0.0 -2.00000002337e-07 -1.24999999684e-07 0.0 -1.50000005306e-07 -1.24999999684e-07 0.0 -1.00000001169e-07 -1.24999999684e-07 0.0 -5.00000005843e-08 -1.24999999684e-07 0.0 -1.35504095737e-18 -1.24999999684e-07 0.0 5.00000005843e-08 -1.24999999684e-07 0.0 1.00000001169e-07 -1.24999999684e-07 0.0 1.50000005306e-07 -1.24999999684e-07 0.0 2.00000002337e-07 -1.24999999684e-07 0.0 2.49999999369e-07 -1.24999999684e-07 0.0 3.00000010611e-07 -1.24999999684e-07 0.0 3.49999993432e-07 -1.24999999684e-07 0.0 4.00000004674e-07 -1.24999999684e-07 0.0 4.49999987495e-07 0.0 2.00000002337e-07 -4.49999987495e-07 0.0 2.00000002337e-07 -4.00000004674e-07 0.0 2.00000002337e-07 -3.49999993432e-07 0.0 2.00000002337e-07 -3.00000010611e-07 0.0 2.00000002337e-07 -2.49999999369e-07 0.0 2.00000002337e-07 -2.00000002337e-07 0.0 2.00000002337e-07 -1.50000005306e-07 0.0 2.00000002337e-07 -1.00000001169e-07 0.0 2.00000002337e-07 -5.00000005843e-08 0.0 2.00000002337e-07 -1.35504095737e-18 0.0 2.00000002337e-07 5.00000005843e-08 0.0 2.00000002337e-07 1.00000001169e-07 0.0 2.00000002337e-07 1.50000005306e-07 0.0 2.00000002337e-07 2.00000002337e-07 0.0 2.00000002337e-07 2.49999999369e-07 0.0 2.00000002337e-07 3.00000010611e-07 0.0 2.00000002337e-07 3.49999993432e-07 0.0 2.00000002337e-07 4.00000004674e-07 0.0 2.00000002337e-07 4.49999987495e-07 1.24999999684e-07 0.0 -4.49999987495e-07 1.24999999684e-07 0.0 -4.00000004674e-07 1.24999999684e-07 0.0 -3.49999993432e-07 1.24999999684e-07 0.0 -3.00000010611e-07 1.24999999684e-07 0.0 -2.49999999369e-07 1.24999999684e-07 0.0 -2.00000002337e-07 1.24999999684e-07 0.0 -1.50000005306e-07 1.24999999684e-07 0.0 -1.00000001169e-07 1.24999999684e-07 0.0 -5.00000005843e-08 1.24999999684e-07 0.0 -1.35504095737e-18 1.24999999684e-07 0.0 5.00000005843e-08 1.24999999684e-07 0.0 1.00000001169e-07 1.24999999684e-07 0.0 1.50000005306e-07 1.24999999684e-07 0.0 2.00000002337e-07 1.24999999684e-07 0.0 2.49999999369e-07 1.24999999684e-07 0.0 3.00000010611e-07 1.24999999684e-07 0.0 3.49999993432e-07 1.24999999684e-07 0.0 4.00000004674e-07 1.24999999684e-07 0.0 4.49999987495e-07 0.0 -2.00000002337e-07 -4.49999987495e-07 0.0 -2.00000002337e-07 -4.00000004674e-07 0.0 -2.00000002337e-07 -3.49999993432e-07 0.0 -2.00000002337e-07 -3.00000010611e-07 0.0 -2.00000002337e-07 -2.49999999369e-07 0.0 -2.00000002337e-07 -2.00000002337e-07 0.0 -2.00000002337e-07 -1.50000005306e-07 0.0 -2.00000002337e-07 -1.00000001169e-07 0.0 -2.00000002337e-07 -5.00000005843e-08 0.0 -2.00000002337e-07 -1.35504095737e-18 0.0 -2.00000002337e-07 5.00000005843e-08 0.0 -2.00000002337e-07 1.00000001169e-07 0.0 -2.00000002337e-07 1.50000005306e-07 0.0 -2.00000002337e-07 2.00000002337e-07 0.0 -2.00000002337e-07 2.49999999369e-07 0.0 -2.00000002337e-07 3.00000010611e-07 0.0 -2.00000002337e-07 3.49999993432e-07 0.0 -2.00000002337e-07 4.00000004674e-07 0.0 -2.00000002337e-07 4.49999987495e-07 -1.16908189034e-22 -1.91685313884e-21 -5.49999981558e-07 -5.46846701255e-09 5.00337264953e-08 -5.49999981558e-07 5.46846701255e-09 -5.00337264953e-08 -5.49999981558e-07 -6.20321516376e-10 1.05059022815e-07 -5.49999981558e-07 6.20321516376e-10 -1.05059022815e-07 -5.49999981558e-07 -4.08206055624e-08 5.62385409353e-08 -5.49999981558e-07 4.08206055624e-08 -5.62385409353e-08 -5.49999981558e-07 3.79462719025e-08 -1.92274320909e-08 -5.49999981558e-07 -3.79462719025e-08 1.92274320909e-08 -5.49999981558e-07 3.31817453514e-08 7.5731485083e-08 -5.49999981558e-07 -3.31817453514e-08 -7.5731485083e-08 -5.49999981558e-07 -2.9002917401e-08 8.54708019915e-08 -5.49999981558e-07 2.9002917401e-08 -8.54708019915e-08 -5.49999981558e-07 3.53613529569e-08 2.52952752078e-08 -5.49999981558e-07 -3.53613529569e-08 -2.52952752078e-08 -5.49999981558e-07 -1.16908189034e-22 -1.91685313884e-21 5.49999981558e-07 -5.46846701255e-09 5.00337264953e-08 5.49999981558e-07 5.46846701255e-09 -5.00337264953e-08 5.49999981558e-07 -6.20321516376e-10 1.05059022815e-07 5.49999981558e-07 6.20321516376e-10 -1.05059022815e-07 5.49999981558e-07 -4.08206055624e-08 5.62385409353e-08 5.49999981558e-07 4.08206055624e-08 -5.62385409353e-08 5.49999981558e-07 3.79462719025e-08 -1.92274320909e-08 5.49999981558e-07 -3.79462719025e-08 1.92274320909e-08 5.49999981558e-07 3.31817453514e-08 7.5731485083e-08 5.49999981558e-07 -3.31817453514e-08 -7.5731485083e-08 5.49999981558e-07 -2.9002917401e-08 8.54708019915e-08 5.49999981558e-07 2.9002917401e-08 -8.54708019915e-08 5.49999981558e-07 3.53613529569e-08 2.52952752078e-08 5.49999981558e-07 -3.53613529569e-08 -2.52952752078e-08 5.49999981558e-07 -8.24717787395e-08 1.50292777334e-07 -2.63718874294e-07 -7.75635129457e-08 1.56840002319e-07 -2.10379283772e-07 -7.92520324921e-08 1.5466395098e-07 -1.50828100232e-07 -7.45080441789e-08 1.60587333653e-07 -8.89702960194e-08 -7.03929501356e-08 1.65271814012e-07 -3.83416221439e-07 -8.08624704973e-08 1.52515013951e-07 -3.58615288576e-08 -8.19417280695e-08 1.51033162865e-07 2.20169596332e-07 -8.24408914468e-08 1.50336148863e-07 2.72938677881e-07 -7.
[...]
      <CellData>
        <DataArray Name="rho_e_real" format="ascii" type="Float32">1.16958734562 -1.17242399821 1.13635951407 -1.13846422164 -0.413326731798 0.41258831445 -0.226949031926 0.225349086962 -0.820834455934 -0.674977773171 0.819673375349 0.673422115205 -0.780876863965 -0.638176570566 0.778011458473 0.635730158573 0.400341507527 0.147453709883 0.288356313668 -0.401224667003 -0.148465268333 -0.289715450598 0.441219743035 -0.443542223987 -0.0834450791856 -0.119127186489 -0.00682101960032 -0.0750136063441 0.082637142395 0.118392930481 0.00592325160207 0.0741211216727 -0.0793814520649 -0.180508230071 0.0780534121387 0.178885493545 -0.0962518482382 -0.006046582746 -0.00586915904951 -0.012588377166 0.0949393832494 0.00509145123678 0.00484425042781 0.0116788104994 -1.19382368237 1.19563412044 -1.16092675503 1.16369489666 0.433447253237 -0.429131527019 0.247144942481 -0.244616025719 0.847315206988 0.701292003035 -0.843277100365 -0.698275333593 0.80044153943 0.659817611272 -0.798469839274 -0.658009921237 -0.419636071657 -0.164386951665 -0.309047193168 0.423435315168 0.16770170946 0.311885711279 -0.455990228535 0.458409899801 0.0937183367645 0.133745564353 0.015711331138 0.0899553984112 -0.089656203905 -0.129863258863 -0.0125308400869 -0.0866111793979 0.0931457786355 0.190872444422 -0.0904221621892 -0.188185174192 0.0996326804232 0.00425926301969 0.0137104703528 0.0128493183284 -0.0962829884745 -0.000789539355623 -0.0105920593086 -0.00965466127712 -6.83772949886 6.80420066153 -7.26573479799 -6.37015305563 7.34338615859 6.07008336329 10.3723881864 12.1425754615 -11.6770556083 11.6297079388 -0.709981772176 7.69871590228 -6.23790641348 5.95920841924 2.62210675765 -2.66710380067 4.48094097327 5.2958879193 3.61470710845 -4.55941453652 -5.36307754499 -3.68789321217 -12.0520146667 1.74345047422 -1.77121168973 -9.30507562479 0.663801179618 0.448948423808 -0.678456725662 -0.45385534262 3.30894269064 2.97913368242 -3.36585898246 -3.02602069247 10.5906879277 8.95682408736 -10.63301374 -8.56631362547 2.37467832826 -2.41147746329 -3.76078611133 -4.94580388761 3.69600583434 4.89501752999 -8.17971921862 -7.32590137983 8.06644137428 6.58767221169 -1.51026832725 1.47999127123 -8.53424751866 -6.18415563283 8.71988683872 6.13114408555 6.18891585061 7.66263513443 5.71037632109 -1.75398384621 -1.29880688406 6.67419995566 0.723541954263 4.65351469145 4.33398297857 -4.73015903916 -4.39756615889 -7.21536027354 -6.00326034405 -4.24596513167 -2.18212477065 -2.69534015165 -0.424403105602 -1.46331830384 -6.20738465678 -3.68432326917 1.02878451069 3.81592714649 12.5351452366 12.1635570663 12.5215956375 -12.6043922375 -12.2194857748 -12.7060952405 -7.51354696672 -7.12545925949 7.42171207143 9.02924255446 6.42586159738 -7.46243898901 -9.07147149976 -6.48596376528 4.35794351053 -9.07540243659 -8.65618621064 9.76577571585 8.39966658246 -5.44324803719 -2.21635082219 8.27676987553 9.7615879263 6.8819125396 -8.34090383018 -9.80938225167 -6.94837421894 -5.2256441541 -4.66137387572 -3.70860348907 5.19289744218 4.60364157875 3.65458318935 1.06749487097 -1.16288434305 10.3428380713 9.48862915908 8.43809120806 11.7452826953 -10.3805035304 -9.52345626807 -8.42127306309 -11.4853574656 0.962832459868 1.41375237655 3.40256434191 1.72989133091 1.9952651665 4.02324735346 -3.84460608354 -1.60239322311 -3.56809290773 0.223698720271 -0.315464156218 4.50543972267 1.02258320647 8.28287999593 -4.34510550822 -2.53013089288 -4.16450003135 -4.70076531977 4.46172561434 6.72073733442 4.73118634571 3.99091818382 -4.92133923362 -6.7046928948 -4.38984546696 -3.00140694499 -3.28426479796 2.9564552576 3.22042418119 -11.3573152768 11.031784807 13.3075338413 -2.18254552332 2.13224327434 -3.02833986684 -0.0868210890545 -3.58929320426 -13.4405700684 -12.6784458389 4.77203395063 4.01347277107 4.91939759761 -4.09623953792 -4.99867395214 6.26566270826 13.9961121612 13.7725228631 -3.50087600001 -3.62953048264 2.33467657379 2.60393699052 4.03604735012 0.613072413641 2.50067527469 2.75640480349 5.23174865463 3.23481559604 4.84267295939 6.2158084737 6.59175427464 -3.81470541924 -5.39617423237 -10.9497945353 -6.36954555756 -13.3789565404 -12.5909897629 2.94660611627 4.17597947564 2.03775531772 -6.32403737872 -6.49874358639 -1.04030436634 -1.85043104497 -0.878439546294 -1.67173427694 -2.37480866309 -2.01884301147 -1.14018394866 2.2078298792 8.46851451207 11.4993565255 12.2761724223 9.51921318161 -0.523360599987 -0.815121387407 0.697963493873 0.832655225029 -9.89808638049 9.14502626605 10.5903222991 3.08171444345 1.42334561882 3.08414075023 0.714094765362 -5.83482175483 -8.7018783534 -9.88574682487 1.92876195715 1.6434969223 2.88411997353 7.04373778436 5.14212657737 6.67898808533 6.29838239567 0.772323308475 1.04576550158 0.133854362835 0.847804839393 2.50822883254 0.0759054273965 -0.24871927061 -0.942547724806 -0.713814382979 -2.38091198927 -1.39092178567 -0.450885976874 -0.872884877051 -0.0717106650579 0.132872295967 -0.217905816531 -0.0943622979742 -0.639299606138 -1.50263861258 -2.4064204691 -3.36302193998 -1.09227183435 -1.18279736539 0.308361905162 0.951876347596 0.458498270548 2.06911687061 1.42194139486 0.745548500478 -6.84605428838 6.81022118952 -7.27154544568 -6.39504290854 7.34447970341 6.07083177969 10.1881614823 10.6369203659 1.25826266783 11.5710664531 9.09762848316 -11.6790495901 11.6317260223 -7.08422350897e-05 7.36001207387 -6.2522914338 5.95438692202 2.62830599486 -2.65909057767 4.49269485318 5.30462466576 3.62469041517 -4.55847559526 -5.36319792286 -3.68609933465 -11.7296055767 1.75081611733 -1.76437493557 0.674325747426 0.458253344285 -0.674783026785 -0.451001676598 3.31743458722 2.98637453583 -3.36072173733 -3.01805777229 10.5150023545 8.94872965029 -10.4762981756 -8.78725777228 -13.4271198665 2.38092740165 -2.40324077431 -3.75756146233 -4.94575973272 3.70771540153 4.90474729938 -8.18997200435 -7.4641390425 8.05750168763 6.57682736096 -1.50563416351 1.48803049405 -8.70284320477 -5.83333846688 -6.14715087688 8.69146170287 6.10715968535 6.16793495823 -2.76438611484 -0.782835007226 7.71805189506 5.67529128368 -0.426937543521 6.265350604 4.65643156942 4.34033582756 -4.74516014539 -4.40500683551 -1.28348942729 -4.65408354718 -5.90461827061 -0.460294804207 -0.915477634351 -1.37989911893 -3.53458916456 -3.12512376031 -0.828650084753 -1.35883666411 -3.54743836885 -2.81812748897 1.01220321909 3.79133955929 -0.970786577572 -3.62491107928 -6.19965376309 -6.28695156021 12.5406975791 12.1642015352 12.4877628057 -12.4827895498 -12.2476996806 -12.421817733 7.42756026074 9.03436989587 6.43593927162 -7.4700153459 -9.08123692187 -6.48756932783 10.0635411693 8.39555746812 -4.22452982792 8.28136511984 9.7633749325 6.88465330905 -8.34178579761 -9.81209524122 -6.94937108719 -5.23005101015 -4.66183864613 -3.70727898292 5.19988772781 4.613409335 3.6629830886 1.05993852761 -1.1039990071 -1.53902029913 -3.78854996712 10.3462058252 9.48753707764 8.43974591486 11.7155595461 -10.3999591728 -9.52958373965 -8.5823672953 -12.0190792484 0.900347603322 1.38071401652 3.36260548078 1.71324117433 1.98417167743 4.0024227723 -1.48447952288 0.444278028041 1.60911607664 4.00104167641 9.96469484347 9.23904632097 4.45575109256 6.70620550885 4.71600820272 3.98071274507 -4.97842365785 -6.84558569511 -4.44448955423 -2.99611438625 -3.28721977758 2.96471831311 3.2276196374 13.0522156693 13.4257788641 -2.17984538246 2.13968656405 -11.5060727187 -14.4024484195 -13.2799467816 4.01827832959 4.92544651902 -4.09675394656 -4.99748907966 9.13448015155 5.39245812524 13.8985517544 13.7882520606 -3.53740485446 -3.64445371882 4.1424457235 6.20185512874 7.011981216 5.1579649658 3.09160880454 4.71489808121 -9.85304295233 -12.6237163411 -10.4290776622 -4.81125629285 -5.64954316746 -0.886507301856 -1.69258695797 -2.38342313465 -2.02264484614 -1.14035503689 -9.04530077474 -4.95786941105 2.21300088628 -9.12276811926 -6.55747381015 -6.95255215924 -9.6692188756 -7.20293527763 -0.522790591539 -0.813089243213 0.702031325603 0.838230129716 -2.74571000262 -6.1951759484 -8.63797748538 -10.0612591586 3.0803476913 1.42074275475 3.0868748442 0.714430366315 -8.27004684998 -8.07664381496 -9.3159671618 1.25455349688 -0.484587630815 -5.15580381145 -5.01486815408 0.823445249494 -2.23956561773 -0.258281488433 -0.119964953924 -1.16509299137 -0.811001075025 1.8261071785 8.08967207348 2.45420588647 2.50664960365 -0.745482416642 -1.25562904833 -2.5438583744 -0.0774988190502 -0.144949287856 0.17681955742 0.0817679015846 -2.36147853307 -4.50073847291 -4.0495878061 -2.68075264426 -1.20226567865 -3.24248027875 -2.07212431342 4.67852580235 3.06423162129 5.1568083109 5.2388994565 0.508943692144 1.19831663207 1.39970563209 0.281390609425 2.46923801777 1.88878724671 1.01844985334 2.78938902291 0.791711177826 1.33975863287 2.56316520369 2.28295401689 0.679174882641 1.05956159836 -0.852304166983 2.13956024528 8.1570927244 6.84521066153 -6.8028234872 7.26744669403 6.39093449556 -7.34053312649 -6.06739446278 -10.2189652968 -10.6495890869 -1.8426975764 -11.8231645783 -9.13242061909 11.6794646937 -11.6274923146 -0.0200304611378 -7.38586031983 6.24522972587 -5.95516596075 -2.6217777961 2.6660022862 -4.47904354131 -5.29469741902 -3.61226365496 4.55981206456 5.36576590597 3.6875342868 11.8164789222 -1.74360861637 1.76918342285 -0.664070570034 -0.449237034029 0.675997625291 0.451355079318 -3.30797122744 -2.97940256747 3.3654256555 3.02535639318 -10.5216540931 -8.95642726068 10.4574677892 8.77336150882 13.3035107083 -2.37506703944 2.40969879725 3.76105896863 4.94731973736 -3.69543069998 -4.8943738006 8.18079703322 7.45344412111 -8.05966708665 -6.58272400386 1.50851989754 -1.4804998033 8.68557800944 5.8196808929 6.13395521546 -8.7038083807 -6.12317311587 -6.17991466979 2.73915293758 0.761772462527 -7.73903325798 -5.69478185242 0.406590795179 -6.29479454934 -4.652276121 -4.33343740759 4.7415173981 4.40421770152 1.26158993537 4.6406706921 5.89050006179 0.446581722333 0.903369272828 1.36788705473 3.5217855071 3.11278688671 0.816629786831 1.34650632753 3.53451098418 2.80556410772 -1.0254990691 -3.8062093005 0.959447201102 3.61272805713 6.18015321126 6.27183780961 -12.540082011 -12.161818176 -12.4954339674 12.4382947463 12.255005539 12.4324746158 -7.42049668993 -9.02744165092 -6.42507054313 7.46955338816 9.08073819128 6.4894851249 -10.0849819331 -8.4123432289 4.20234651582 -8.27480791803 -9.75992241548 -6.87874597011 8.34312253336 9.81109441035 6.9501518858 5.22952823841 4.66433136247 3.7098515952 -5.19231271873 -4.60370694505 -3.6546124383 -1.06566430427 1.09571701413 1.52903303884 3.77810715574 -10.3419501432 -9.48399419547 -8.44051278699 -11.7184670421 10.394545745 9.52619266558 8.57136517935 12.0069030185 -0.918707579985 -1.39685031468 -3.3807993912 -1.72408316376 -1.99166458816 -4.01413335726 1.40516488572 -0.479366236374 -1.63039892321 -3.85606395056 -10.1837512774 -9.28934666712 -4.45787040265 -6.71479566285 -4.72473644691 -3.98653645711 4.97109747607 6.83404386523 4.43440767371 3.00006904351 3.28772214743 -2.95698971708 -3.22050001601 -13.0664302053 -13.4291205716 2.18054146998 -2.13261906877 11.4767356405 14.0841771582 13.1802540423 -4.00873168552 -4.91624381048 4.09578648757 4.99872586619 -9.13887959919 -5.64550884197 -13.8904414766 -13.8033514942 3.53106954551 3.64090225019 -4.16596436334 -6.08057417544 -7.0016749229 -5.17960162092 -3.11064791435 -4.73757058839 9.830268154 12.5749958789 10.40953823 4.79736616216 5.6358050457 0.881495512452 1.68602963545 2.38037183683 2.02204192547 1.13753200274 9.04913148233 4.93605070287 -2.20770508928 9.10562987747 6.54082638872 6.93757609431 9.65287537351 6.67769560079 0.521171991242 0.812861909636 -0.697763004022 -0.832659040373 2.74973120989 6.08688741383 8.57169608173 10.3137708348 -3.07991990232 -1.42193409273 -3.08308779403 -0.713558469766 8.25607869495 8.065102332 9.33978591435 -1.27313077374 0.467465826756 5.918405188 5.09414745796 -0.939873098396 2.97045802333 0.243799419332 0.102660005502 1.15000813949 0.798236361618 -1.84627816849 -8.12859604032 -2.44928299151 -2.52699908699 0.733090607 1.24346249023 2.53109970435 0.0625618281479 0.129473776825 -0.1937519497 -0.0982252168485 2.37506757025 3.77089920399 4.03555643267 2.66392690323 1.18676580909 3.22869513437 2.05785670252 -4.70875192315 -3.08794777261 -5.18251611605 -5.26039293683 -0.526455539914 -1.21972245203 -1.41857057884 -0.299314417321 -2.49284212091 -1.90849123615 -1.03622248065 -2.81125860225 -0.811685668991 -1.3614236684 -2.58358780562 -2.30279164676 -0.69926042877 -1.07882790134 0.803592968014 -2.13707511063 -8.18913880748 6.83854056278 -6.80880858395 7.26196169899 6.38479812842 -7.34470414512 -6.07147041237 -10.2204792106 -10.6520762618 -1.84557909251 -11.8250094342 -9.13192200433 11.6768811642 -11.6297819773 -0.00988935772617 -7.38444688127 6.24075742454 -5.95657074093 -2.62601584853 2.65498386281 -4.48694903997 -5.30041595181 -3.61946688978 4.5563129439 5.36081253514 3.68338241986 11.812478759 -1.74959883736 1.76049247896 -0.673928284557 -0.458205430914 0.67136917073 0.447668940681 -3.31378756099 -2.98352911027 3.35712055768 3.01444338281 -10.5224817391 -8.95732218806 10.4526895456 8.76785888679 13.299548481 -2.37925322658 2.39930048588 3.75460773093 4.9416598103 -3.70317434898 -4.90128622232 8.17460510897 7.44921732887 -8.06181470733 -6.58298048792 1.50185938874 -1.48732242332 8.68264151238 5.82296317919 6.13352797736 -8.70281667536 -6.11866397539 -6.17770912946 2.74206435361 0.769853203126 -7.73647897429 -5.69057931383 0.4131970009 -6.29188325553 -4.65615016152 -4.33925358571 4.7370355096 4.39821223559 1.26536521962 4.64776148578 5.89426480451 0.453095400934 0.910909468203 1.38381371924 3.53451791926 3.12586249223 0.835321041158 1.35231159193 3.54963056995 2.83108296991 -1.01241409754 -3.7995230264 0.976373871237 3.61797703457 6.18408641912 6.27273832568 -12.5429740338 -12.1633460119 -12.4959805787 12.4340635804 12.2522910418 12.4301884549 -7.42533245863 -9.03264663757 -6.43169390875 7.46478970582 9.07499383121 6.48398198994 -10.084539289 -8.41145192925 4.20147896052 -8.27764804234 -9.76166283782 -6.88088117304 8.34070062806 9.80918603081 6.94839637472 5.22403600595 4.65714044442 3.70286160022 -5.19804166738 -4.61064661475 -3.66059337802 -1.05972936632 1.07605591504 1.52834724073 3.77977512203 -10.3459095899 -9.48863503264 -8.44288667448 -11.7219791537 10.3891944111 9.51880065893 8.56655033421 11.9992500783 -0.906773500009 -1.38370926424 -3.37192437251 -1.71507903875 -1.98564665579 -4.00783467636 1.40294270824 -0.478564856774 -1.62806119017 -3.85637154741 -10.1833980895 -9.29050468184 -4.45806910577 -6.71305745633 -4.72161082032 -3.98363666632 4.96700997436 6.83083523877 4.4332707861 2.99157943401 3.28209494301 -2.96295621653 -3.22632921415 -13.0661428526 -13.4310275426 2.17504024758 -2.13890011055 11.4691369045 14.079872307 13.178166944 -4.01267354476 -4.91937118949 4.09494780429 4.99654526603 -9.14112793883 -5.64805424567 -13.8927819187 -13.8035159993 3.52949559606 3.63669757334 -4.15740768529 -6.08032110732 -7.00347919024 -5.17393038717 -3.10324334805 -4.73326119018 9.82641153112 12.5727425734 10.4027403169 4.80587973035 5.64108445642 0.882540567756 1.68680513559 2.3771457317 2.01783345191 1.13485215866 9.04609738252 4.93435331584 -2.21256322919 9.1038648519 6.53874754408 6.93827120121 9.64839172714 6.67596063741 0.519574844523 0.809309212924 -0.701875158856 -0.83805204801 2.74782242961 6.08136530847 8.56755035124 10.3123749555 -3.08079496674 -1.42107843996 -3.08684142927 -0.714036853238 8.25351362899 8.06121622343 9.33344208587 -1.25885060784 0.483741146053 5.91492903775 5.08957606296 -0.94255051105 2.96920680232 0.285575680243 0.124255370017 1.17079941973 0.833423064294 -1.83716107033 -8.1278593993 -2.44961454685 -2.51956188237 0.807334515827 1.2717535152 2.5503961927 0.11797731798 0.151771952597 -0.162569072894 -0.0503893452675 2.37188454599 3.76967048684 4.04410616716 2.67277622834 1.20063752074 3.24508072624 2.07680690596 -4.7074097715 -3.08480301314 -5.18041494594 -5.25580402745 -0.517805012996 -1.19498872273 -1.40935714273 -0.249980903078 -2.48498165107 -1.89816026723 -1.02685522447 -2.80420168535 -0.800398361966 -1.34308540457 -2.57793220639 -2.29380612621 -0.743402858453 -1.07904741355 0.803897708552 -2.13890427575 -8.18845591171 -1.99556232099 -0.547778609594 -1.03477399452 -1.24974565948 -2.60851924839 -1.94265089576 -2.70487014981 -1.51142294739 -1.75271923273 -2.27181570236 -2.33445261907 -2.42225451477 -2.80909341421 -1.4011841329 -1.03612533077 -0.222203397971 -0.200726282077 -0.516424816329 -0.219424700407 -0.328396122898 -0.406712551355 -0.575812166617 -1.1746674027 -0.970137861678 -1.98617107544 -0.517133551724 -1.01635594363 -1.22766026292 -2.61639750087 -1.92434804197 -2.70902710623 -1.52427661217 -1.76120520756 -2.26038208983 -2.33150833207 -2.42322672654 -2.80988888734 -1.38570574386 -1.06279978214 -0.238835796169 -0.19864394188 -0.514213646998 -0.22704249164 -0.337820623789 -0.431184947559 -0.572453642003 -1.17088744859 -0.969916523112 1.99401705222 0.546759616032 1.03363060941 1.24800051024 2.60653493453 1.94070821589 2.70282877379 1.50857704368 1.75000154671 2.26802521403 2.33113810532 2.419661966 2.80642568768 1.39939040388 1.03467118078 0.221133452509 0.199313746236 0.513640382552 0.216894523572 0.326397525424 0.405736919307 0.573980631351 1.17240813472 0.968347975227 1.98206432505 0.51449843327 1.01261327754 1.2242127224 2.61223329175 1.92039618726 2.70513482194 1.52068254469 1.75688601314 2.25596951695 2.328312181 2.41929509576 2.8065266193 1.38153684043 1.05938135861 0.237004799726 0.196727867049 0.510879013338 0.224166971214 0.335139323704 0.428621668904 0.569447936131 1.16702934678 0.966591181057 1.96931373287 0.558808518519 1.23243418855 1.03576224451 1.91092267819 2.56420002335 2.64937018352 1.50829061932 1.74114380028 2.2523067563 2.26440603532 2.36518074154 2.74066129934 1.39302051865 1.04068207558 0.228690962277 0.21145926329 0.50465876332 0.215696248828 0.317680420565 0.408591675216 0.571350938581 1.15376438428 0.94987311612 1.9668576018 0.524694878873 1.21913342033 1.01457470277 1.90341261753 2.58258712783 2.66189677792 1.52289379889 1.75322639029 2.24250734689 2.26774413974 2.37464709247 2.74581382002 1.37577836588 1.06802285334 0.240203554588 0.205199457065 0.513335602525 0.232987760401 0.329710752629 0.427180695736 0.572831533958 1.15991325276 0.955260300793 -1.96705555051 -0.554624121741 -1.23039067941 -1.03070730222 -1.90860154275 -2.56168022538 -2.64550381433 -1.50492248675 -1.73781058168 -2.2486560205 -2.25931537651 -2.36089260478 -2.73545360206 -1.3883215475 -1.03682252431 -0.22434490865 -0.207659009136 -0.503585005732 -0.214333227074 -0.314026763663 -0.403453425748 -0.568224538042 -1.15231024627 -0.947273644247 -1.96445179294 -0.521763468521 -1.21649652924 -1.01208058889 -1.8998351449 -2.57873381692 -2.65717473711 -1.51950436515 -1.75007836085 -2.23878826916 -2.26062011608 -2.36910233828 -2.73986006838 -1.37325961228 -1.0653543422 -0.236662554109 -0.201231563352 -0.511933753907 -0.23127981513 -0.326808935332 -0.424039552932 -0.570015041438 -1.15837857871 -0.953197971354</DataArray>