<?xml version="1.0" ?>
<VTKFile byte_order="LittleEndian" type="PolyData" version="0.1">
  <PolyData>
    <Piece NumberOfPoints="649" NumberOfPolys="1294">
      <Points>
        <DataArray NumberOfComponents="3" format="ascii" type="Float32">-7.50000026528e-08 0.0 -5.49999981558e-07 0.0 1.50000005306e-07 -5.49999981558e-07 7.50000026528e-08 0.0 -5.49999981558e-07 0.0 -1.50000005306e-07 -5.49999981558e-07 -1.24999999684e-07 0.0 -4.99999998738e-07 0.0 2.00000002337e-07 -4.99999998738e-07 1.24999999684e-07 0.0 -4.99999998738e-07 0.0 -2.00000002337e-07 -4.99999998738e-07 -1.24999999684e-07 0.0 4.99999998738e-07 0.0 2.00000002337e-07 4.99999998738e-07 1.24999999684e-07 0.0 4.99999998738e-07 0.0 -2.00000002337e-07 4.99999998738e-07 -7.50000026528e-08 0.0 5.49999981558e-07 0.0 1.50000005306e-07 5.49999981558e-07 7.50000026528e-08 0.0 5.49999981558e-07 0.0 -1.50000005306e-07 5.49999981558e-07 -7.15085590741e-08 4.52338682067e-08 -5.49999981558e-07 -6.03087286777e-08 8.91707898631e-08 -5.49999981558e-07 -3.84819820454e-08 1.28749945816e-07 -5.49999981558e-07 3.84819820454e-08 1.28749945816e-07 -5.49999981558e-07 6.03087286777e-08 8.91707898631e-08 -5.49999981558e-07 7.15085590741e-08 4.52338682067e-08 -5.49999981558e-07 7.15085590741e-08 -4.52338682067e-08 -5.49999981558e-07 6.03087286777e-08 -8.91707898631e-08 -5.49999981558e-07 3.84819820454e-08 -1.28749945816e-07 -5.49999981558e-07 -3.84819820454e-08 -1.28749945816e-07 -5.49999981558e-07 -6.03087286777e-08 -8.91707898631e-08 -5.49999981558e-07 -7.15085590741e-08 -4.52338682067e-08 -5.49999981558e-07 -1.22079754306e-07 4.29781685796e-08 -4.99999998738e-07 -1.13117927469e-07 8.51063788332e-08 -4.99999998738e-07 -9.74701706014e-08 1.25215379398e-07 -4.99999998738e-07 -7.39634202773e-08 1.61230573781e-07 -4.99999998738e-07 -4.11570226788e-08 1.88848119365e-07 -4.99999998738e-07 4.11570226788e-08 1.88848119365e-07 -4.99999998738e-07 7.39634202773e-08 1.61230573781e-07 -4.99999998738e-07 9.74701706014e-08 1.25215379398e-07 -4.99999998738e-07 1.13117927469e-07 8.51063788332e-08 -4.99999998738e-07 1.22079754306e-07 4.29781685796e-08 -4.99999998738e-07 1.22079754306e-07 -4.29781685796e-08 -4.99999998738e-07 1.13117927469e-07 -8.51063788332e-08 -4.99999998738e-07 9.74701706014e-08 -1.25215379398e-07 -4.99999998738e-07 7.39634202773e-08 -1.61230573781e-07 -4.99999998738e-07 4.11570226788e-08 -1.88848119365e-07 -4.99999998738e-07 -4.11570226788e-08 -1.88848119365e-07 -4.99999998738e-07 -7.39634202773e-08 -1.61230573781e-07 -4.99999998738e-07 -9.74701706014e-08 -1.25215379398e-07 -4.99999998738e-07 -1.13117927469e-07 -8.51063788332e-08 -4.99999998738e-07 -1.22079754306e-07 -4.29781685796e-08 -4.99999998738e-07 -1.22079754306e-07 4.29781685796e-08 4.99999998738e-07 -1.13117927469e-07 8.51063788332e-08 4.99999998738e-07 -9.74701706014e-08 1.25215379398e-07 4.99999998738e-07 -7.39634202773e-08 1.61230573781e-07 4.99999998738e-07 -4.11570226788e-08 1.88848119365e-07 4.99999998738e-07 4.11570226788e-08 1.88848119365e-07 4.99999998738e-07 7.39634202773e-08 1.61230573781e-07 4.99999998738e-07 9.74701706014e-08 1.25215379398e-07 4.99999998738e-07 1.13117927469e-07 8.51063788332e-08 4.99999998738e-07 1.22079754306e-07 4.29781685796e-08 4.99999998738e-07 1.22079754306e-07 -4.29781685796e-08 4.99999998738e-07 1.13117927469e-07 -8.51063788332e-08 4.99999998738e-07 9.74701706014e-08 -1.25215379398e-07 4.99999998738e-07 7.39634202773e-08 -1.61230573781e-07 4.99999998738e-07 4.11570226788e-08 -1.88848119365e-07 4.99999998738e-07 -4.11570226788e-08 -1.88848119365e-07 4.99999998738e-07 -7.39634202773e-08 -1.61230573781e-07 4.99999998738e-07 -9.74701706014e-08 -1.25215379398e-07 4.99999998738e-07 -1.13117927469e-07 -8.51063788332e-08 4.99999998738e-07 -1.22079754306e-07 -4.29781685796e-08 4.99999998738e-07 -7.15085590741e-08 4.52338682067e-08 5.49999981558e-07 -6.03087286777e-08 8.91707898631e-08 5.49999981558e-07 -3.84819820454e-08 1.28749945816e-07 5.49999981558e-07 3.84819820454e-08 1.28749945816e-07 5.49999981558e-07 6.03087286777e-08 8.91707898631e-08 5.49999981558e-07 7.15085590741e-08 4.52338682067e-08 5.49999981558e-07 7.15085590741e-08 -4.52338682067e-08 5.49999981558e-07 6.03087286777e-08 -8.91707898631e-08 5.49999981558e-07 3.84819820454e-08 -1.28749945816e-07 5.49999981558e-07 -3.84819820454e-08 -1.28749945816e-07 5.49999981558e-07 -6.03087286777e-08 -8.91707898631e-08 5.49999981558e-07 -7.15085590741e-08 -4.52338682067e-08 5.49999981558e-07 -1.10355337313e-07 0.0 -5.35355354714e-07 0.0 1.8535533286e-07 -5.35355354714e-07 1.10355337313e-07 0.0 -5.35355354714e-07 0.0 -1.8535533286e-07 -5.35355354714e-07 -1.10355337313e-07 0.0 5.35355354714e-07 0.0 1.8535533286e-07 5.35355354714e-07 1.10355337313e-07 0.0 5.35355354714e-07 0.0 -1.8535533286e-07 5.35355354714e-07 -1.24999999684e-07 0.0 -4.49999987495e-07 -1.24999999684e-07 0.0 -4.00000004674e-07 -1.24999999684e-07 0.0 -3.49999993432e-07 -1.24999999684e-07 0.0 -3.00000010611e-07 -1.24999999684e-07 0.0 -2.49999999369e-07 -1.24999999684e-07 0.0 -2.00000002337e-07 -1.24999999684e-07 0.0 -1.50000005306e-07 -1.24999999684e-07 0.0 -1.00000001169e-07 -1.24999999684e-07 0.0 -5.00000005843e-08 -1.24999999684e-07 0.0 -1.35504095737e-18 -1.24999999684e-07 0.0 5.00000005843e-08 -1.24999999684e-07 0.0 1.00000001169e-07 -1.24999999684e-07 0.0 1.50000005306e-07 -1.24999999684e-07 0.0 2.00000002337e-07 -1.24999999684e-07 0.0 2.49999999369e-07 -1.24999999684e-07 0.0 3.00000010611e-07 -1.24999999684e-07 0.0 3.49999993432e-07 -1.24999999684e-07 0.0 4.00000004674e-07 -1.24999999684e-07 0.0 4.49999987495e-07 0.0 2.00000002337e-07 -4.49999987495e-07 0.0 2.00000002337e-07 -4.00000004674e-07 0.0 2.00000002337e-07 -3.49999993432e-07 0.0 2.00000002337e-07 -3.00000010611e-07 0.0 2.00000002337e-07 -2.49999999369e-07 0.0 2.00000002337e-07 -2.00000002337e-07 0.0 2.00000002337e-07 -1.50000005306e-07 0.0 2.00000002337e-07 -1.00000001169e-07 0.0 2.00000002337e-07 -5.00000005843e-08 0.0 2.00000002337e-07 -1.35504095737e-18 0.0 2.00000002337e-07 5.00000005843e-08 0.0 2.00000002337e-07 1.00000001169e-07 0.0 2.00000002337e-07 1.50000005306e-07 0.0 2.00000002337e-07 2.00000002337e-07 0.0 2.00000002337e-07 2.49999999369e-07 0.0 2.00000002337e-07 3.00000010611e-07 0.0 2.00000002337e-07 3.49999993432e-07 0.0 2.00000002337e-07 4.00000004674e-07 0.0 2.00000002337e-07 4.49999987495e-07 1.24999999684e-07 0.0 -4.49999987495e-07 1.24999999684e-07 0.0 -4.00000004674e-07 1.24999999684e-07 0.0 -3.49999993432e-07 1.24999999684e-07 0.0 -3.00000010611e-07 1.24999999684e-07 0.0 -2.49999999369e-07 1.24999999684e-07 0.0 -2.00000002337e-07 1.24999999684e-07 0.0 -1.50000005306e-07 1.24999999684e-07 0.0 -1.00000001169e-07 1.24999999684e-07 0.0 -5.00000005843e-08 1.24999999684e-07 0.0 -1.35504095737e-18 1.24999999684e-07 0.0 5.00000005843e-08 1.24999999684e-07 0.0 1.00000001169e-07 1.24999999684e-07 0.0 1.50000005306e-07 1.24999999684e-07 0.0 2.00000002337e-07 1.24999999684e-07 0.0 2.49999999369e-07 1.24999999684e-07 0.0 3.00000010611e-07 1.24999999684e-07 0.0 3.49999993432e-07 1.24999999684e-07 0.0 4.00000004674e-07 1.24999999684e-07 0.0 4.49999987495e-07 0.0 -2.00000002337e-07 -4.49999987495e-07 0.0 -2.00000002337e-07 -4.00000004674e-07 0.0 -2.00000002337e-07 -3.49999993432e-07 0.0 -2.00000002337e-07 -3.00000010611e-07 0.0 -2.00000002337e-07 -2.49999999369e-07 0.0 -2.00000002337e-07 -2.00000002337e-07 0.0 -2.00000002337e-07 -1.50000005306e-07 0.0 -2.00000002337e-07 -1.00000001169e-07 0.0 -2.00000002337e-07 -5.00000005843e-08 0.0 -2.00000002337e-07 -1.35504095737e-18 0.0 -2.00000002337e-07 5.00000005843e-08 0.0 -2.00000002337e-07 1.00000001169e-07 0.0 -2.00000002337e-07 1.50000005306e-07 0.0 -2.00000002337e-07 2.00000002337e-07 0.0 -2.00000002337e-07 2.49999999369e-07 0.0 -2.00000002337e-07 3.00000010611e-07 0.0 -2.00000002337e-07 3.49999993432e-07 0.0 -2.00000002337e-07 4.00000004674e-07 0.0 -2.00000002337e-07 4.49999987495e-07 -1.16908189034e-22 -1.91685313884e-21 -5.49999981558e-07 -5.46846701255e-09 5.00337264953e-08 -5.49999981558e-07 5.46846701255e-09 -5.00337264953e-08 -5.49999981558e-07 -6.20321516376e-10 1.05059022815e-07 -5.49999981558e-07 6.20321516376e-10 -1.05059022815e-07 -5.49999981558e-07 -4.08206055624e-08 5.62385409353e-08 -5.49999981558e-07 4.08206055624e-08 -5.62385409353e-08 -5.49999981558e-07 3.79462719025e-08 -1.92274320909e-08 -5.49999981558e-07 -3.79462719025e-08 1.92274320909e-08 -5.49999981558e-07 3.31817453514e-08 7.5731485083e-08 -5.49999981558e-07 -3.31817453514e-08 -7.5731485083e-08 -5.49999981558e-07 -2.9002917401e-08 8.54708019915e-08 -5.49999981558e-07 2.9002917401e-08 -8.54708019915e-08 -5.49999981558e-07 3.53613529569e-08 2.52952752078e-08 -5.49999981558e-07 -3.53613529569e-08 -2.52952752078e-08 -5.49999981558e-07 -1.16908189034e-22 -1.91685313884e-21 5.49999981558e-07 -5.46846701255e-09 5.00337264953e-08 5.49999981558e-07 5.46846701255e-09 -5.00337264953e-08 5.49999981558e-07 -6.20321516376e-10 1.05059022815e-07 5.49999981558e-07 6.20321516376e-10 -1.05059022815e-07 5.49999981558e-07 -4.08206055624e-08 5.62385409353e-08 5.49999981558e-07 4.08206055624e-08 -5.62385409353e-08 5.49999981558e-07 3.79462719025e-08 -1.92274320909e-08 5.49999981558e-07 -3.79462719025e-08 1.92274320909e-08 5.49999981558e-07 3.31817453514e-08 7.5731485083e-08 5.49999981558e-07 -3.31817453514e-08 -7.5731485083e-08 5.49999981558e-07 -2.9002917401e-08 8.54708019915e-08 5.49999981558e-07 2.9002917401e-08 -8.54708019915e-08 5.49999981558e-07 3.53613529569e-08 2.52952752078e-08 5.49999981558e-07 -3.53613529569e-08 -2.52952752078e-08 5.49999981558e-07 -8.24717787395e-08 1.50292777334e-07 -2.63718874294e-07 -7.75635129457e-08 1.56840002319e-07 -2.10379283772e-07 -7.92520324921e-08 1.5466395098e-07 -1.50828100232e-07 -7.45080441789e-08 1.60587333653e-07 -8.89702960194e-08 -7.03929501356e-08 1.65271814012e-07 -3.83416221439e-07 -8.08624704973e-08 1.52515013951e-07 -3.58615288576e-08 -8.19417280695e-08 1.51033162865e-07 2.20169596332e-07 -8.24408914468e-08 1.50336148863e-07 2.72938677881e-07 -7.
[...]
      <CellData>
        <DataArray Name="rho_e_real" format="ascii" type="Float32">-62.2548804913 62.2700474772 -61.6400178963 61.6459340575 29.1090910148 -29.1048773546 26.6059403376 -26.5930423994 49.0440842171 43.8483010964 -49.0430820319 -43.8436875866 47.712605997 42.1800624205 -47.6895207159 -42.1631301753 -30.4574654924 -21.4195832655 -28.4617670701 30.4611426931 21.4276599083 28.4707332648 -31.4255336157 31.4482478942 8.83177790098 14.7999093491 7.53887713582 14.5493725966 -8.82141802977 -14.7921245004 -7.52795185113 -14.540034093 16.9344537562 18.0536811302 -16.9205048307 -18.0352867927 9.30706596848 0.710453822118 8.09614713662 0.877182982776 -9.29007570025 -0.697330341008 -8.08351547466 -0.864965596333 -62.3688896767 62.3348698549 -61.7352673816 61.7044902639 29.1108385536 -29.1367434413 26.607780091 -26.6338148144 49.0792850287 43.8830296393 -49.1069050659 -43.9090771214 47.7505053573 42.2095055195 -47.7861034244 -42.2399026087 -30.5007511375 -21.4516222808 -28.5050803256 30.4778188201 21.4284074859 28.4806618737 -31.494625557 31.4616959944 8.81281416218 14.7933374945 7.52604738402 14.5438343342 -8.83838571804 -14.8163463973 -7.54895561326 -14.5666838103 16.9230224372 18.0449363339 -16.9480449514 -18.0723277177 9.2935087801 0.69071546507 8.07932789063 0.85728776074 -9.32128888328 -0.715317383815 -8.10345212342 -0.880610481991 88.4987800623 88.8707065752 88.5738017351 70.8456771318 90.1080422351 67.9720199292 108.772010134 127.385890772 151.274859014 152.028194193 26.9723145473 70.3950763325 68.4116530882 64.648680169 60.7942091394 60.8397105362 110.734236345 96.4803961035 105.889882211 110.513291197 96.2431454851 105.745012469 123.037514697 37.1187303894 37.2403631321 109.630490066 13.5482660626 6.88336440968 13.6382039698 6.93796087427 81.5200542595 62.9756462581 81.4743483654 62.9433349801 103.254677758 90.4936891609 102.951974847 85.9261102521 45.8874838149 45.9402698604 86.0893542895 87.4830696017 86.1829579658 87.7010469552 84.1956558433 75.611616957 82.7050834476 71.1886075278 26.203088521 26.0817246632 76.1074622925 59.7434132122 79.8126658647 52.9785679439 59.9243548951 68.1459479122 51.9605306333 43.5428112127 33.8301322589 57.1373149487 33.3610398715 56.7238470705 57.9578950057 57.3897637846 57.2836218247 65.9062473251 51.7861873069 49.26841161 29.8598899054 37.1377848973 4.24376870491 22.232378179 65.4487650143 48.2882793423 7.77627889886 35.1708358226 142.93246485 137.046335579 136.753249159 142.960915751 136.352520343 134.813465953 72.9871309283 55.862181732 106.476608457 120.242243314 107.097324656 106.086241593 119.685005452 106.757494805 51.9158943639 91.0905013836 79.6499534356 92.9744293317 80.5990461436 65.6675107709 54.7669260596 134.177214829 138.539078447 125.553082292 133.649575945 137.941645507 125.128919115 73.584577645 72.5769117475 63.2308469952 73.6779223471 72.6245268563 63.1381577199 9.51223446118 10.2639698097 129.441907692 104.547179039 96.3552808805 124.022120121 128.938460263 104.012158857 95.4267870773 122.109496415 6.65156331646 13.0806384705 27.429578927 16.568970598 19.3675534417 34.7863188442 35.4951916372 17.0991928742 32.5551528172 63.0204276775 49.8483612239 49.0833186454 41.7804563502 91.2238720368 39.1484369232 28.4097479075 33.2759757621 44.6004377254 45.7558239064 62.5726951168 47.0185300481 38.6580031312 49.6030891141 63.2092572189 44.8146169008 49.63090551 46.8062171064 49.3440241957 47.1526698758 110.484038939 113.723847252 133.230078036 32.0764603803 32.5212432942 94.0477262837 71.8816399662 90.1227969292 138.252647675 132.394427763 42.0803370248 125.12590949 122.014060474 124.849820758 121.675121165 100.017194214 145.97906088 134.661896606 36.465744153 41.0494945225 34.4016972164 39.5541403779 35.3509529883 24.9668722373 27.4776271766 29.6470931241 42.9361888299 29.2699045729 45.0848120813 93.745826559 83.8477556945 36.3420865295 44.741013002 108.506387566 85.2341363242 135.498408987 123.842212421 75.5804973348 68.8168480826 51.9806529637 99.757553133 99.582871837 8.19624516372 16.9472387727 8.85773238072 17.867073135 28.6190108867 26.4269761455 13.6167650906 28.2855417515 95.7331414034 94.6429930547 121.437912762 92.1177141553 6.24148485958 12.170079283 8.0299136491 12.0184810827 89.8448593619 106.424212518 106.945746161 33.5649763076 15.4323014763 37.0074548873 7.64866698496 75.3457117862 91.3264656806 109.650918331 86.3175050216 92.9616777131 22.3137089956 79.4563671642 62.1637694935 65.2753812414 76.1592336236 5.54809606281 10.2169624446 2.5152032888 18.2974791545 24.531892871 9.34990999288 8.20743729119 15.5546142438 8.68985017579 21.2683609735 16.8989700745 3.894198674 10.0976527979 3.19591528912 7.82642318333 19.8391072324 13.8714954612 4.64782190638 12.4958392909 22.9092925429 26.8459162235 8.10278595064 12.4980703087 2.35356089611 9.40491587676 4.5331516591 17.2847654268 19.2708923811 7.95199235999 88.4802620896 89.0385988929 88.5487697889 70.9450515956 90.260134355 68.138986436 104.478038248 110.938266022 85.4760257184 119.805527956 87.670224393 151.275353307 152.06638027 29.0630154561 69.4269098463 68.5381508239 64.7890612828 60.9755559534 60.5897317093 110.883469721 96.6173251453 106.0430912 110.413396225 96.1387224954 105.607585408 121.739345529 37.3125419757 37.0135639976 13.779493638 7.1036929072 13.4380336962 6.76774871902 81.6904494776 63.1335785014 81.2666335939 62.7231952905 102.989728625 90.6674542972 103.733505141 87.6830559208 136.243897316 46.0581413377 45.7078627103 85.9286240369 87.367701937 86.3592796582 87.8710336567 84.1955152276 77.0920509151 82.8358672245 71.2951356529 26.016524335 26.2817224692 77.1629892598 49.4021486985 58.7731652271 79.88593404 53.0342026696 59.9937224324 46.5416104247 34.0131752571 68.7461188762 52.0565303531 37.5130842988 57.5274417338 56.9058427508 58.1513039075 57.3945812373 57.2274270472 41.7202650339 41.8624854257 50.2768461264 4.54446521799 6.56899344412 12.7936755659 29.6218703288 25.9608884133 5.76294265231 12.1771680689 30.5651063204 23.3315977462 7.88516682854 35.2526461653 7.527386514 33.6211656373 49.0468654368 61.8679593509 143.000304583 137.100653041 136.661037138 141.360087756 136.513744627 137.692790714 106.608050189 120.35799766 107.237834646 106.056308185 119.703243611 106.705580682 94.1934273444 80.7720126706 60.9031051554 134.229144287 138.589486489 125.60821174 133.648010266 137.913570748 125.085723577 73.5153973097 72.4638404919 63.0836043652 73.851744002 72.8071022857 63.3179990058 9.66058277016 9.80499237287 15.5747446668 33.8724553871 129.554897572 104.673194271 96.4925583432 124.016487131 128.967497757 104.019634596 96.3515555237 122.956897587 6.59107967861 13.0250968216 27.3814141147 16.666293229 19.5025797593 34.8732303514 70.1822809077 49.898157167 50.2507762952 86.3648818082 103.91496992 96.6098157447 45.9099886434 62.6837980369 47.1293315748 38.7841742826 49.8281292384 64.2380844443 45.2022651015 49.457855183 46.6977877847 49.53098325 47.3442857907 121.39227231 136.125555201 31.9124283945 32.7233163924 115.111945573 149.127501475 136.174189248 125.201393024 122.069329299 124.796075831 121.643343202 108.171580339 97.8236782225 145.163354889 136.467980044 36.5656122064 41.0554697425 32.1512650699 90.5144968559 95.7348702068 42.3023296493 28.4741730611 45.394071616 94.4632312064 124.636069276 103.762924337 43.6910579788 48.7485102023 8.80659054007 17.7837865719 28.5560505739 26.3360033126 13.4977063848 80.880735588 64.6651902746 28.4819458048 73.6875428979 69.0060457908 63.6880905373 91.3868138686 99.7484614641 6.11993872736 12.0235651062 8.23178499471 12.2184388993 67.4134465278 79.2729649034 107.234802543 107.738350212 33.7393424937 15.6089186532 37.1989637392 7.83608534056 73.8260414113 88.8996459638 100.971340663 20.2440577495 21.3398755668 96.7975397469 80.095117783 75.3782718953 93.079966074 8.04298480583 15.2411067997 16.0081167524 10.4998354207 23.170278285 75.0966674357 65.4147082606 32.0979261345 5.30947015898 11.886965845 22.065147403 2.44075707752 8.10194562483 10.5926904548 3.01810312188 100.751194445 85.5873037486 41.2877811553 34.2393227654 24.1973222433 30.1864215408 20.8556879469 65.6779113193 47.6308907892 59.515834391 49.864011021 9.21572150378 9.36738706035 17.060602063 2.00877879948 35.4467757574 30.4619305469 25.8093887914 37.2859542017 6.18326833177 11.4513164168 20.6889455214 21.4400704318 4.50629965002 10.4033929634 59.1250715422 68.7598343275 68.05107032 -88.5570184237 -88.875848645 -88.5937667954 -71.0035060087 -90.1031556371 -67.9762803907 -104.47758127 -110.87876027 -88.07703344 -121.667262403 -87.6669790777 -151.263385229 -151.996000965 -29.0537984475 -69.4196078244 -68.5596752977 -64.6441343344 -60.8242089056 -60.842263417 -110.754618251 -96.4876647089 -105.914498083 -110.513178116 -96.2443024959 -105.740581981 -121.96169951 -37.1462194002 -37.2465161688 -13.5739864711 -6.90592365618 -13.6375502689 -6.94076081308 -81.5477387981 -63.0026617597 -81.4728935215 -62.945629714 -102.879968619 -90.5559266618 -103.68559615 -87.6353172683 -135.289271486 -45.9138670798 -45.9424775402 -86.0898797581 -87.4950279359 -86.2084603265 -87.7184987861 -84.2015021992 -77.0715439985 -82.6935369652 -71.178611477 -26.2122080821 -26.1063212298 -77.104829929 -49.3623227599 -58.733574236 -79.7880654208 -52.9541835512 -59.9016308112 -46.5451050027 -33.999895909 -68.6990546899 -52.0041826536 -37.5099748986 -57.5315494604 -56.7357499285 -57.9758656342 -57.4700672095 -57.3406221776 -41.6931063366 -41.8116930989 -50.2222781561 -4.51361587383 -6.52602263777 -12.7573905661 -29.5748300344 -25.9239258973 -5.71538153151 -12.1292226033 -30.5151431085 -23.2826199529 -7.78841749362 -35.1731895028 -7.50862759625 -33.5865722095 -49.0101504752 -61.8153176802 -142.923182145 -137.004021835 -136.607749991 -141.030471261 -136.589276672 -137.703677767 -106.471873852 -120.229548824 -107.105184919 -106.115550113 -119.728227004 -106.776748216 -94.1526719518 -80.7000048727 -60.9015776063 -134.164857068 -138.51414716 -125.544004605 -133.64712843 -137.913437532 -125.120098961 -73.6156507339 -72.6039572554 -63.2476531658 -73.6894103377 -72.6430829371 -63.1598119249 -9.52371189079 -9.82900502106 -15.5714249593 -33.8697461151 -129.426693901 -104.525343956 -96.3683623401 -123.895988277 -128.960940869 -104.045687577 -96.3248435433 -122.935461898 -6.53116850544 -12.9513444867 -27.3152630948 -16.5617739196 -19.372460465 -34.7699935228 -70.1615707996 -49.9186818054 -50.257247819 -86.0140710889 -104.568949206 -96.6328223382 -45.7603650671 -62.566321846 -47.012327488 -38.6576306129 -49.8609399026 -64.2233574485 -45.195839554 -49.6450604762 -46.8388269137 -49.3693335035 -47.173135319 -121.347597279 -135.750696506 -32.0684578962 -32.5457364717 -115.029493031 -145.818843376 -135.875634781 -125.138752782 -122.023303273 -124.843164332 -121.669795489 -107.653985551 -98.8439789917 -145.039483203 -136.390908445 -36.6137452941 -41.1428638366 -32.1397622231 -90.4982904723 -95.6901597911 -42.2658781665 -28.429082353 -45.3739626923 -94.3750932068 -124.506863267 -103.674416933 -43.6374427387 -48.7006545503 -8.88065648375 -17.8381151227 -28.6564443809 -26.4726104526 -13.6038725397 -80.9383362485 -64.6175786745 -28.3060259142 -73.6251560251 -68.9328075678 -63.6330995912 -91.3238953392 -99.1939372011 -6.2516674093 -12.1726682458 -8.05124643313 -12.0409009865 -67.4003048532 -79.1192435293 -106.532685016 -108.581961498 -33.5779349393 -15.4489000286 -37.026033735 -7.66836157252 -73.7844945657 -88.8577086533 -100.978891425 -20.2366999873 -21.3263023785 -98.8460223695 -80.1720733324 -75.4524263574 -93.7502551103 -8.01855660935 -15.2247109502 -15.985185705 -10.4634590282 -23.1633733009 -75.1700775783 -65.420403754 -32.0921623724 -5.2675446427 -11.840946596 -22.0194444684 -2.42001786468 -8.08436856548 -10.5817001679 -3.00499532241 -97.4531380811 -85.7964521846 -41.2481132858 -34.2174308031 -24.1698900186 -30.1437082965 -20.8213519113 -65.695293068 -47.641158 -59.5250556614 -49.8644590557 -9.20277353671 -9.36396559092 -17.0484489878 -1.99495838294 -35.4529474884 -30.4567148006 -25.8009784077 -37.2899867442 -6.16731683066 -11.4306576804 -20.6530505799 -21.413457262 -4.47072438667 -10.3591523203 -59.0997084175 -68.7379242763 -68.0849399319 -88.4477621928 -89.0307479379 -88.5069610552 -70.9071431804 -90.2576377446 -68.1446886635 -104.548530007 -110.97156096 -88.062367894 -121.68852282 -87.7225196042 -151.243531177 -152.029975656 -29.0257828592 -69.4879914058 -68.4906705967 -64.7999827971 -60.985855749 -60.5872181821 -110.873319378 -96.6023154 -106.042485287 -110.408192978 -96.129628633 -105.605961011 -121.945522312 -37.3275251605 -37.0124840553 -13.7993264322 -7.12454983065 -13.4368951993 -6.77154748932 -81.6935473204 -63.1356232117 -81.265034965 -62.7230195163 -102.984859952 -90.6858216339 -103.651436386 -87.5824657615 -135.274395339 -46.0679801232 -45.7089773659 -85.9277196652 -87.3568412289 -86.3536434037 -87.8643379764 -84.127987226 -77.0234604351 -82.8465250979 -71.3112840075 -26.0189984299 -26.2973229098 -77.0726496743 -49.3465144712 -58.7048234588 -79.9094133773 -53.0634816237 -60.0224559512 -46.5140013637 -33.9699305502 -68.7856140406 -52.0933837517 -37.4817845662 -57.5777309888 -56.9153296323 -58.1571546374 -57.3704559708 -57.2107625075 -41.6659431634 -41.8135600887 -50.2074122189 -4.39489473914 -6.80581617042 -12.7773504763 -29.580967824 -25.9304577557 -5.74087910013 -12.0804540147 -30.5297469178 -23.3346588759 -7.8917983331 -35.2783665908 -7.7006435807 -33.5734309885 -48.9868762403 -61.7976657054 -142.972382249 -137.057850252 -136.657315661 -141.008706771 -136.553192163 -137.679736763 -106.59121464 -120.333457433 -107.217621386 -106.027183368 -119.656750335 -106.681918304 -94.2337801093 -80.807174777 -60.8663843634 -134.203183661 -138.561751053 -125.592854479 -133.619454324 -137.874960205 -125.070697149 -73.4975182359 -72.4538830836 -63.0788896553 -73.8497518703 -72.8017383265 -63.3202794308 -9.67686792715 -9.73554889759 -15.4987103518 -33.8418624079 -129.532336541 -104.660342471 -96.485901483 -124.011123489 -128.896179604 -103.964462365 -96.2735223309 -122.877336956 -6.63051741339 -13.0266087238 -27.4025157787 -16.6825416733 -19.5217314423 -34.8944568847 -70.1364045464 -49.8835993453 -50.232801863 -86.0132549539 -104.587335984 -96.6733291444 -45.9289785231 -62.7048782081 -47.1537955825 -38.8032255412 -49.7874482815 -64.1725223175 -45.1551550671 -49.4548213099 -46.6938182792 -49.5369923038 -47.3529565214 -121.377925062 -135.781348231 -31.908726123 -32.7367123482 -114.989201556 -145.802139319 -135.85984547 -125.204319601 -122.059504428 -124.790289438 -121.633468391 -107.660603154 -98.8389142904 -145.080563064 -136.431628042 -36.5498251316 -41.0381885171 -32.1690192379 -90.505143404 -95.7010533593 -42.3312383235 -28.4981416161 -45.4271674442 -94.3517822039 -124.494122681 -103.640322595 -43.6377917798 -48.686456893 -8.81788585714 -17.7759657479 -28.5496365358 -26.3368843716 -13.4942111172 -80.9128924072 -64.587716293 -28.4981375206 -73.5989523105 -68.9074080059 -63.6133325288 -91.2850651032 -99.1845062914 -6.13048547253 -12.0259785056 -8.25324604573 -12.2377795012 -67.374639835 -79.0826888346 -106.51371596 -108.573762156 -33.7576843203 -15.6293301272 -37.2144945037 -7.85631788571 -73.7532246486 -88.8337668266 -100.944353074 -20.2139684588 -21.3036511691 -98.8284342628 -80.1407120896 -75.429020218 -93.7426053789 -8.06505855866 -15.1998698377 -15.9769975396 -10.4651593406 -23.1659881727 -75.194126661 -65.4292247925 -32.1079868051 -5.16348557454 -11.9581355761 -22.0386924611 -2.65058688479 -8.05352957786 -10.5367865426 -2.88188230152 -97.4369231851 -85.7884366458 -41.2383343645 -34.1936745416 -24.1562776231 -30.146789075 -20.8367663899 -65.6983300248 -47.6378313377 -59.5560374378 -49.8775712656 -9.16522346139 -9.32896625737 -17.0754615662 -1.94379385749 -35.4289893781 -30.4400052556 -25.7797614645 -37.2764715352 -5.80120078299 -11.4117375231 -20.6963990684 -21.4570278521 -4.77793910566 -10.4926791241 -59.0800075878 -68.7201152652 -68.0801481393 63.7432249236 34.2607727062 56.2740104797 50.8174778038 94.2710055916 80.7628943982 109.700900148 90.5971841123 96.3173620211 126.837169432 140.117571808 123.08126715 130.190672953 79.0645799455 60.0788565643 13.5997472007 6.04329042827 15.9602028996 7.10395260784 15.2237443129 26.958785692 28.5523678282 33.9860280406 36.5571068287 63.4656274524 33.5020757502 55.611257862 50.4809781802 94.204614027 80.4385966751 109.622333456 90.7203433408 96.3779967379 126.689835988 140.056786188 122.980592138 130.150683392 78.7097785922 60.962451711 13.3463881653 5.99641559461 15.7504527198 6.99999532545 15.1530715493 27.2695492651 28.3639445664 33.753186117 36.3887786604 -63.7375123658 -34.2527069482 -56.270250185 -50.8056117001 -94.2674483558 -80.7541754607 -109.694878453 -90.5887216505 -96.3126108111 -126.831577696 -140.1078746 -123.074192458 -130.186323267 -79.0608340517 -60.0710715476 -13.5870772674 -6.02935751965 -15.951119122 -7.09432967289 -15.2051867953 -26.9494303813 -28.5393143302 -33.9767813754 -36.5416067655 -63.4530334299 -33.4796614049 -55.5861192556 -50.4689422384 -94.1982454049 -80.4306219922 -109.6179263 -90.7096908258 -96.3665757705 -126.681539957 -140.05548489 -122.976133741 -130.147354606 -78.6914605833 -60.9431404546 -13.327400241 -5.9760301276 -15.7388990906 -6.98416898779 -15.1373223632 -27.2464203619 -28.3442451075 -33.7417574347 -36.3761530534 63.7097314764 34.2136119385 50.7217777195 56.245309862 80.7341745002 94.3128566002 109.797530885 90.6689079352 96.3797387806 126.999999311 140.312601602 123.188891448 130.405166481 79.0896950404 60.0676753759 13.5316016609 5.94066082802 15.7241506725 6.89420403452 15.0558907456 26.8959015546 28.4013687261 33.8388356267 36.4311737495 63.7715943962 33.5777349754 50.7278131511 55.7576082665 80.7553470585 94.5804848233 109.994550555 90.8639299062 96.5967972709 126.905295231 140.342637882 123.319265469 130.478063913 78.8939592323 61.0892957893 13.3908384487 6.06310652682 15.9590909697 7.1871374753 15.312452229 27.3440989809 28.5394843726 34.0452175142 36.6145093235 -63.7391101652 -34.2434345524 -50.7548895673 -56.277096304 -80.7717768292 -94.3484441628 -109.831361928 -90.7082749498 -96.419319043 -127.044230458 -140.352297165 -123.22882393 -130.436108294 -79.1223558803 -60.1002962469 -13.5621389346 -5.97158540015 -15.7530503151 -6.92346410651 -15.0879506087 -26.9248053281 -28.4357425693 -33.8685750048 -36.4591088393 -63.7919053281 -33.6114602103 -50.752093744 -55.795237818 -80.7766862518 -94.5968644119 -110.012521756 -90.9006774032 -96.6309514358 -126.946627867 -140.369472075 -123.342357352 -130.499575404 -78.9301955944 -61.1244053618 -13.4234855205 -6.09390369202 -15.9840720861 -7.21346583648 -15.3467198882 -27.3799723135 -28.5718578356 -34.0693741296 -36.640987673</DataArray>