<?xml version="1.0" ?>
<VTKFile byte_order="LittleEndian" type="PolyData" version="0.1">
  <PolyData>
    <Piece NumberOfPoints="649" NumberOfPolys="1294">
      <Points>
        <DataArray NumberOfComponents="3" format="ascii" type="Float32">-7.50000026528e-08 0.0 -5.49999981558e-07 0.0 1.50000005306e-07 -5.49999981558e-07 7.50000026528e-08 0.0 -5.49999981558e-07 0.0 -1.50000005306e-07 -5.49999981558e-07 -1.24999999684e-07 0.0 -4.99999998738e-07 0.0 2.00000002337e-07 -4.99999998738e-07 1.24999999684e-07 0.0 -4.99999998738e-07 0.0 -2.00000002337e-07 -4.99999998738e-07 -1.24999999684e-07 0.0 4.99999998738e-07 0.0 2.00000002337e-07 4.99999998738e-07 1.24999999684e-07 0.0 4.99999998738e-07 0.0 -2.00000002337e-07 4.99999998738e-07 -7.50000026528e-08 0.0 5.49999981558e-07 0.0 1.50000005306e-07 5.49999981558e-07 7.50000026528e-08 0.0 5.49999981558e-07 0.0 -1.50000005306e-07 5.49999981558e-07 -7.15085590741e-08 4.52338682067e-08 -5.49999981558e-07 -6.03087286777e-08 8.91707898631e-08 -5.49999981558e-07 -3.84819820454e-08 1.28749945816e-07 -5.49999981558e-07 3.84819820454e-08 1.28749945816e-07 -5.49999981558e-07 6.03087286777e-08 8.91707898631e-08 -5.49999981558e-07 7.15085590741e-08 4.52338682067e-08 -5.49999981558e-07 7.15085590741e-08 -4.52338682067e-08 -5.49999981558e-07 6.03087286777e-08 -8.91707898631e-08 -5.49999981558e-07 3.84819820454e-08 -1.28749945816e-07 -5.49999981558e-07 -3.84819820454e-08 -1.28749945816e-07 -5.49999981558e-07 -6.03087286777e-08 -8.91707898631e-08 -5.49999981558e-07 -7.15085590741e-08 -4.52338682067e-08 -5.49999981558e-07 -1.22079754306e-07 4.29781685796e-08 -4.99999998738e-07 -1.13117927469e-07 8.51063788332e-08 -4.99999998738e-07 -9.74701706014e-08 1.25215379398e-07 -4.99999998738e-07 -7.39634202773e-08 1.61230573781e-07 -4.99999998738e-07 -4.11570226788e-08 1.88848119365e-07 -4.99999998738e-07 4.11570226788e-08 1.88848119365e-07 -4.99999998738e-07 7.39634202773e-08 1.61230573781e-07 -4.99999998738e-07 9.74701706014e-08 1.25215379398e-07 -4.99999998738e-07 1.13117927469e-07 8.51063788332e-08 -4.99999998738e-07 1.22079754306e-07 4.29781685796e-08 -4.99999998738e-07 1.22079754306e-07 -4.29781685796e-08 -4.99999998738e-07 1.13117927469e-07 -8.51063788332e-08 -4.99999998738e-07 9.74701706014e-08 -1.25215379398e-07 -4.99999998738e-07 7.39634202773e-08 -1.61230573781e-07 -4.99999998738e-07 4.11570226788e-08 -1.88848119365e-07 -4.99999998738e-07 -4.11570226788e-08 -1.88848119365e-07 -4.99999998738e-07 -7.39634202773e-08 -1.61230573781e-07 -4.99999998738e-07 -9.74701706014e-08 -1.25215379398e-07 -4.99999998738e-07 -1.13117927469e-07 -8.51063788332e-08 -4.99999998738e-07 -1.22079754306e-07 -4.29781685796e-08 -4.99999998738e-07 -1.22079754306e-07 4.29781685796e-08 4.99999998738e-07 -1.13117927469e-07 8.51063788332e-08 4.99999998738e-07 -9.74701706014e-08 1.25215379398e-07 4.99999998738e-07 -7.39634202773e-08 1.61230573781e-07 4.99999998738e-07 -4.11570226788e-08 1.88848119365e-07 4.99999998738e-07 4.11570226788e-08 1.88848119365e-07 4.99999998738e-07 7.39634202773e-08 1.61230573781e-07 4.99999998738e-07 9.74701706014e-08 1.25215379398e-07 4.99999998738e-07 1.13117927469e-07 8.51063788332e-08 4.99999998738e-07 1.22079754306e-07 4.29781685796e-08 4.99999998738e-07 1.22079754306e-07 -4.29781685796e-08 4.99999998738e-07 1.13117927469e-07 -8.51063788332e-08 4.99999998738e-07 9.74701706014e-08 -1.25215379398e-07 4.99999998738e-07 7.39634202773e-08 -1.61230573781e-07 4.99999998738e-07 4.11570226788e-08 -1.88848119365e-07 4.99999998738e-07 -4.11570226788e-08 -1.88848119365e-07 4.99999998738e-07 -7.39634202773e-08 -1.61230573781e-07 4.99999998738e-07 -9.74701706014e-08 -1.25215379398e-07 4.99999998738e-07 -1.13117927469e-07 -8.51063788332e-08 4.99999998738e-07 -1.22079754306e-07 -4.29781685796e-08 4.99999998738e-07 -7.15085590741e-08 4.52338682067e-08 5.49999981558e-07 -6.03087286777e-08 8.91707898631e-08 5.49999981558e-07 -3.84819820454e-08 1.28749945816e-07 5.49999981558e-07 3.84819820454e-08 1.28749945816e-07 5.49999981558e-07 6.03087286777e-08 8.91707898631e-08 5.49999981558e-07 7.15085590741e-08 4.52338682067e-08 5.49999981558e-07 7.15085590741e-08 -4.52338682067e-08 5.49999981558e-07 6.03087286777e-08 -8.91707898631e-08 5.49999981558e-07 3.84819820454e-08 -1.28749945816e-07 5.49999981558e-07 -3.84819820454e-08 -1.28749945816e-07 5.49999981558e-07 -6.03087286777e-08 -8.91707898631e-08 5.49999981558e-07 -7.15085590741e-08 -4.52338682067e-08 5.49999981558e-07 -1.10355337313e-07 0.0 -5.35355354714e-07 0.0 1.8535533286e-07 -5.35355354714e-07 1.10355337313e-07 0.0 -5.35355354714e-07 0.0 -1.8535533286e-07 -5.35355354714e-07 -1.10355337313e-07 0.0 5.35355354714e-07 0.0 1.8535533286e-07 5.35355354714e-07 1.10355337313e-07 0.0 5.35355354714e-07 0.0 -1.8535533286e-07 5.35355354714e-07 -1.24999999684e-07 0.0 -4.49999987495e-07 -1.24999999684e-07 0.0 -4.00000004674e-07 -1.24999999684e-07 0.0 -3.49999993432e-07 -1.24999999684e-07 0.0 -3.00000010611e-07 -1.24999999684e-07 0.0 -2.49999999369e-07 -1.24999999684e-07 0.0 -2.00000002337e-07 -1.24999999684e-07 0.0 -1.50000005306e-07 -1.24999999684e-07 0.0 -1.00000001169e-07 -1.24999999684e-07 0.0 -5.00000005843e-08 -1.24999999684e-07 0.0 -1.35504095737e-18 -1.24999999684e-07 0.0 5.00000005843e-08 -1.24999999684e-07 0.0 1.00000001169e-07 -1.24999999684e-07 0.0 1.50000005306e-07 -1.24999999684e-07 0.0 2.00000002337e-07 -1.24999999684e-07 0.0 2.49999999369e-07 -1.24999999684e-07 0.0 3.00000010611e-07 -1.24999999684e-07 0.0 3.49999993432e-07 -1.24999999684e-07 0.0 4.00000004674e-07 -1.24999999684e-07 0.0 4.49999987495e-07 0.0 2.00000002337e-07 -4.49999987495e-07 0.0 2.00000002337e-07 -4.00000004674e-07 0.0 2.00000002337e-07 -3.49999993432e-07 0.0 2.00000002337e-07 -3.00000010611e-07 0.0 2.00000002337e-07 -2.49999999369e-07 0.0 2.00000002337e-07 -2.00000002337e-07 0.0 2.00000002337e-07 -1.50000005306e-07 0.0 2.00000002337e-07 -1.00000001169e-07 0.0 2.00000002337e-07 -5.00000005843e-08 0.0 2.00000002337e-07 -1.35504095737e-18 0.0 2.00000002337e-07 5.00000005843e-08 0.0 2.00000002337e-07 1.00000001169e-07 0.0 2.00000002337e-07 1.50000005306e-07 0.0 2.00000002337e-07 2.00000002337e-07 0.0 2.00000002337e-07 2.49999999369e-07 0.0 2.00000002337e-07 3.00000010611e-07 0.0 2.00000002337e-07 3.49999993432e-07 0.0 2.00000002337e-07 4.00000004674e-07 0.0 2.00000002337e-07 4.49999987495e-07 1.24999999684e-07 0.0 -4.49999987495e-07 1.24999999684e-07 0.0 -4.00000004674e-07 1.24999999684e-07 0.0 -3.49999993432e-07 1.24999999684e-07 0.0 -3.00000010611e-07 1.24999999684e-07 0.0 -2.49999999369e-07 1.24999999684e-07 0.0 -2.00000002337e-07 1.24999999684e-07 0.0 -1.50000005306e-07 1.24999999684e-07 0.0 -1.00000001169e-07 1.24999999684e-07 0.0 -5.00000005843e-08 1.24999999684e-07 0.0 -1.35504095737e-18 1.24999999684e-07 0.0 5.00000005843e-08 1.24999999684e-07 0.0 1.00000001169e-07 1.24999999684e-07 0.0 1.50000005306e-07 1.24999999684e-07 0.0 2.00000002337e-07 1.24999999684e-07 0.0 2.49999999369e-07 1.24999999684e-07 0.0 3.00000010611e-07 1.24999999684e-07 0.0 3.49999993432e-07 1.24999999684e-07 0.0 4.00000004674e-07 1.24999999684e-07 0.0 4.49999987495e-07 0.0 -2.00000002337e-07 -4.49999987495e-07 0.0 -2.00000002337e-07 -4.00000004674e-07 0.0 -2.00000002337e-07 -3.49999993432e-07 0.0 -2.00000002337e-07 -3.00000010611e-07 0.0 -2.00000002337e-07 -2.49999999369e-07 0.0 -2.00000002337e-07 -2.00000002337e-07 0.0 -2.00000002337e-07 -1.50000005306e-07 0.0 -2.00000002337e-07 -1.00000001169e-07 0.0 -2.00000002337e-07 -5.00000005843e-08 0.0 -2.00000002337e-07 -1.35504095737e-18 0.0 -2.00000002337e-07 5.00000005843e-08 0.0 -2.00000002337e-07 1.00000001169e-07 0.0 -2.00000002337e-07 1.50000005306e-07 0.0 -2.00000002337e-07 2.00000002337e-07 0.0 -2.00000002337e-07 2.49999999369e-07 0.0 -2.00000002337e-07 3.00000010611e-07 0.0 -2.00000002337e-07 3.49999993432e-07 0.0 -2.00000002337e-07 4.00000004674e-07 0.0 -2.00000002337e-07 4.49999987495e-07 -1.16908189034e-22 -1.91685313884e-21 -5.49999981558e-07 -5.46846701255e-09 5.00337264953e-08 -5.49999981558e-07 5.46846701255e-09 -5.00337264953e-08 -5.49999981558e-07 -6.20321516376e-10 1.05059022815e-07 -5.49999981558e-07 6.20321516376e-10 -1.05059022815e-07 -5.49999981558e-07 -4.08206055624e-08 5.62385409353e-08 -5.49999981558e-07 4.08206055624e-08 -5.62385409353e-08 -5.49999981558e-07 3.79462719025e-08 -1.92274320909e-08 -5.49999981558e-07 -3.79462719025e-08 1.92274320909e-08 -5.49999981558e-07 3.31817453514e-08 7.5731485083e-08 -5.49999981558e-07 -3.31817453514e-08 -7.5731485083e-08 -5.49999981558e-07 -2.9002917401e-08 8.54708019915e-08 -5.49999981558e-07 2.9002917401e-08 -8.54708019915e-08 -5.49999981558e-07 3.53613529569e-08 2.52952752078e-08 -5.49999981558e-07 -3.53613529569e-08 -2.52952752078e-08 -5.49999981558e-07 -1.16908189034e-22 -1.91685313884e-21 5.49999981558e-07 -5.46846701255e-09 5.00337264953e-08 5.49999981558e-07 5.46846701255e-09 -5.00337264953e-08 5.49999981558e-07 -6.20321516376e-10 1.05059022815e-07 5.49999981558e-07 6.20321516376e-10 -1.05059022815e-07 5.49999981558e-07 -4.08206055624e-08 5.62385409353e-08 5.49999981558e-07 4.08206055624e-08 -5.62385409353e-08 5.49999981558e-07 3.79462719025e-08 -1.92274320909e-08 5.49999981558e-07 -3.79462719025e-08 1.92274320909e-08 5.49999981558e-07 3.31817453514e-08 7.5731485083e-08 5.49999981558e-07 -3.31817453514e-08 -7.5731485083e-08 5.49999981558e-07 -2.9002917401e-08 8.54708019915e-08 5.49999981558e-07 2.9002917401e-08 -8.54708019915e-08 5.49999981558e-07 3.53613529569e-08 2.52952752078e-08 5.49999981558e-07 -3.53613529569e-08 -2.52952752078e-08 5.49999981558e-07 -8.24717787395e-08 1.50292777334e-07 -2.63718874294e-07 -7.75635129457e-08 1.56840002319e-07 -2.10379283772e-07 -7.92520324921e-08 1.5466395098e-07 -1.50828100232e-07 -7.45080441789e-08 1.60587333653e-07 -8.89702960194e-08 -7.03929501356e-08 1.65271814012e-07 -3.83416221439e-07 -8.08624704973e-08 1.52515013951e-07 -3.58615288576e-08 -8.19417280695e-08 1.51033162865e-07 2.20169596332e-07 -8.24408914468e-08 1.50336148863e-07 2.72938677881e-07 -7.
[...]
      <CellData>
        <DataArray Name="rho_e_real" format="ascii" type="Float32">10579.9827903 -10233.801806 -10624.4719206 10974.9020126 30037.9590902 -29676.7619337 -2231.3224159 2532.41215492 24626.1728287 12078.819713 -24260.876679 -11762.1178226 -26580.5225974 -11384.1281903 26936.8473034 11691.0454362 -17431.4360392 -7347.8842301 -3598.89966197 17749.2106514 7655.8895993 3899.74680098 28182.8450769 -27835.9937297 26471.2722182 17913.0527731 3727.91418832 7414.87958008 -26124.5746304 -17591.1507617 -3420.80869153 -7106.95156786 -4912.84034876 -17321.2668974 5215.09420224 17633.2369273 -23968.714042 -15529.2458623 -2257.87309026 -5339.27886493 24306.5793839 15850.1973029 2573.05576961 5649.36209896 -10314.7595694 10637.0869439 10923.743415 -10596.5257892 -29685.3992972 30032.9830066 2582.21857858 -2295.90248257 -24250.481906 -11731.1325576 24596.9185417 12029.4415409 27017.5173192 11755.9719697 -26681.1722543 -11468.3717022 17725.7998565 7619.53178888 3846.48967747 -17421.0638194 -7323.28834741 -3560.18129629 -27930.2022777 28260.7366879 -26154.4456204 -17598.6257213 -3414.22352335 -7093.81749475 26491.2591686 17911.1085868 3710.7682586 7391.1613337 5257.36425317 17691.407674 -4967.5780554 -17391.9124864 24355.4044228 15874.122241 2593.14684734 5657.50048762 -24028.4939343 -15562.6168984 -2289.33999868 -5357.68067475 90284.0651478 -90419.5357035 74321.0468509 77950.9028443 -74946.0393543 -79235.128553 -21654.7224334 -2866.02673362 15302.4375706 -15254.1841997 -4608.70145477 -45.7351407153 57603.5926262 -56997.7316977 -184273.500329 184229.266588 -98841.2245825 -96408.9014048 -120808.672927 98922.4590474 96411.1046492 120904.180891 1860.80037992 -176918.040111 177173.401758 349.689449337 -177258.556092 -155223.95251 176704.67578 152992.637872 -158371.78144 -152028.848524 158418.533054 151999.980174 -29629.3001395 -35890.6914941 28307.4100839 32401.9773927 -162402.350479 162498.657359 134503.03249 116682.569127 -134460.922461 -116724.158007 54200.1191924 36927.9397576 -53173.7287302 -34910.0998846 154443.247769 -155160.537511 18961.4242133 20916.4223378 -23879.5258415 -8959.23547804 -19769.5624048 -4511.96413113 -989.909799099 -5032.53090044 -5960.52134919 8486.11507746 3167.67766342 -91632.3490697 -111070.382104 87251.1738512 107838.55627 3285.17443163 -3608.44251632 -9593.96117163 -11397.1924753 -10163.9944955 -16038.4821294 -13500.1697918 -7366.00096443 -4920.97055313 -8469.80438998 -5738.72439146 -15627.7519623 -29492.1642479 -20550.002662 15703.503572 29464.2426024 20813.7121019 566.614992431 -11044.6884631 -76270.8625949 -58525.2456691 -79262.7921408 76265.0137133 58507.0071069 79263.5118291 5677.0908663 11123.8530786 12414.6435425 -12445.8945752 -16809.9908083 -5289.12257424 -2355.78292335 -22610.2978112 -33113.3192197 -42847.4187551 22684.4420011 33169.3975978 42920.2770644 101612.472432 120798.361074 133655.850851 -101186.624284 -120868.728172 -133596.178272 -41152.7033294 41773.1273495 -52370.5774252 -63225.0960613 -43950.8487101 -40286.0135713 52353.5918249 63188.9651094 43080.7770254 39511.9446285 11551.1344357 3227.91844982 5752.06584227 -16269.3202703 -34755.4772967 -17156.9920017 35074.938887 31341.7932522 15284.1446415 -735.980868052 -1630.78497818 9779.6517416 2297.80444764 -1832.12283525 -16729.6682802 -14128.2105682 -18102.8907284 -9751.10053979 -58424.1071731 -32236.3088626 -29133.2691059 -36709.7874862 57554.6400009 35349.9093075 36466.6025183 142020.07764 121683.905594 -140771.266686 -124498.467629 20212.3776863 -4598.52002051 -5349.79430863 130690.687621 -136291.592888 -367.379752222 736.348446912 -1530.38310809 9496.54372803 10769.7233071 17380.1092198 -55713.1114027 -29093.2340275 55856.1948363 29222.7498366 -91.5195575748 -9618.50704138 -11487.1298264 64206.0734793 88921.7193622 8059.2077276 8254.36132028 15282.4681346 3084.17783542 16074.4991835 16031.7810004 10156.1922355 10091.8217086 10603.1042545 50.413211968 2672.18735577 -2386.25296989 7387.83038918 8522.98131073 -1730.12536176 4822.81423063 4379.49958687 2032.31213162 3059.75381827 2682.80937991 -478.396691082 -457.789406854 13701.0437996 3853.16856575 75863.4806966 63571.659242 97056.4019583 118758.317558 96859.5150981 -113747.443161 -10522.9990071 -535.927339748 -9381.39418089 -4384.91091389 116458.041573 127480.691528 -110048.771023 -122682.951518 1268.36191538 -464.349864057 -809.738786513 -72966.3603386 -68845.4081624 -95385.6750551 -82039.1901647 -1318.32852362 1067.97823841 1064.12287823 -384.654474539 3.27059698585 18570.761008 1396.64767832 7321.44091404 6590.22073304 2900.32071199 21927.9957712 16363.4001072 5719.1059879 8376.72758312 17752.639126 1464.97328789 -9084.89936123 -11366.1767373 -21283.0598895 -23034.9288982 -15243.2605114 -22446.9984757 -16890.2972042 -6093.33844064 1417.99506166 -2370.64703859 -1546.03425637 -20913.2675795 -24358.2826009 -15379.4678619 -12763.4773883 -8242.76347009 -12455.9893507 18056.8927279 20882.4388796 22328.9879495 21934.2864764 14495.8008898 19564.4437728 -90178.5978011 90413.692606 -74230.0948117 -77659.9460424 74958.0193521 79221.3067151 10142.0959428 21968.5878446 -935.561836921 2585.65216238 3241.84837233 -15142.7230971 15260.7822125 -1271.98843007 273.066421136 -57502.7524585 57006.5498281 184440.747464 -184001.478787 98902.7613413 96415.5575375 120903.09122 -98696.8063041 -96232.8664082 -120635.041637 -2203.1213039 177084.963737 -177005.881363 177457.794771 155367.947029 -176457.12209 -152803.719152 158474.275754 152102.8307 -158163.530026 -151799.673786 29540.8407608 35943.6364972 -24215.2404497 -31185.3803499 -4718.38398055 162516.683547 -162365.737023 -134279.771288 -116507.892693 134518.371343 116757.138102 -54219.8317697 -37782.5847338 53166.1901792 34931.9499169 -154311.137414 155281.337735 -16277.676972 -7813.81494387 -18205.0399343 23894.6501257 8988.83489873 19770.3724733 6498.68376303 2032.35804144 4516.74200943 989.780135001 1763.2171841 -7369.48150054 91646.3499977 111086.359345 -86981.6555124 -107652.169839 942.606294005 1864.7849743 4668.54366661 16471.7644142 11473.3226878 1270.26035417 9957.60274553 1920.3164533 20205.2576966 17959.2013798 16254.1945253 14566.5937523 8426.69515942 5743.09714794 -9849.70355059 -9315.26420565 15739.9472175 2573.20512526 15624.1666722 29470.0404874 20568.1968349 -15666.8332338 -29303.5972453 -18514.257354 76282.341489 58520.7821011 79274.3091103 -76112.8059059 -58361.8386758 -79104.0998979 13225.1531633 16798.0749751 6270.33248514 22626.8827812 33125.1359139 42871.6907622 -22500.1296234 -32993.9797389 -42727.1912668 -101492.896805 -120647.958544 -133490.324838 101202.171082 120880.457565 133643.3992 41142.9800155 -41358.5442613 -25157.6772255 -26970.5838558 52379.0595808 63202.7015833 43965.6880065 40260.881161 -52298.171443 -63085.0490559 -43519.5521882 -38648.364415 -11571.1718432 -3251.42283605 -5719.47450405 16245.9542162 34733.5562835 17146.610488 1900.40235649 -2640.76778001 -4318.26535917 -1771.39675343 628.21005125 1438.99273862 58414.4493879 32234.6021165 29133.4303086 36710.9603389 -56722.4430733 -33302.7319885 -35377.0969243 -141942.753959 -121450.597787 140831.166493 124541.55851 5087.2369272 5213.94631537 -130467.380319 136365.549329 -18007.2802609 -8484.51652769 -9943.97014398 55815.4965482 29155.4136061 -55592.3623271 -29001.6054331 251.341201168 -676.197740714 9459.86687135 11898.2604167 -63024.8517688 -88424.4203016 -20515.6043892 -715.520948133 -1950.53470639 -10290.2990604 -10113.8709607 -10550.5615348 -9474.41503232 -5026.64450064 -7085.67051004 10401.7601117 11853.8685796 -75659.9535105 -62534.4306897 -96710.6190769 -118516.653504 -96482.8564707 4356.86444682 2926.20759591 113793.278679 1372.37153371 -10777.2128959 -3335.54312805 -10367.0581828 -434.247710865 -116302.407029 -127300.891397 110113.493009 122770.08668 92.2039182719 1095.72216266 -1292.43895772 -1360.52097353 72978.8969472 68851.8228286 95402.9678805 82067.8258995 3931.20787982 -3409.52203998 -2161.3920442 -10567.6124498 3758.8036817 -608.900937972 1684.23828529 -2675.56132906 -1125.35989874 6953.21939858 341.667459279 13625.3416601 18134.4319875 -14150.512258 -5057.52715971 1426.99543681 -11982.852038 22037.0082765 23549.0163029 18131.4605686 5590.97160661 5210.8249411 -3839.48223554 -5254.28320311 -936.740458511 1145.32831901 11973.4653235 12435.4962935 8681.70426266 19117.8952926 17026.6077312 -5672.82142102 -6547.64628967 -4903.7892717 -12555.8876977 -13786.4568958 -25878.5033415 -19605.6157888 -17462.0963892 -10827.3687051 -10163.8401582 -6637.60098354 -11054.6924868 -21515.6069173 -25476.2240449 -17650.5979828 -17865.6024314 -20722.1866487 -16097.5415177 2171.18452844 -1180.67094246 -10578.5523101 -90145.0825922 90497.4166146 -74221.1814525 -77639.7586618 75002.5549147 79273.1683114 10143.9612357 21951.5906184 -571.620768456 2675.25960799 3256.77345096 -15138.7981662 15347.3472763 -1126.7240603 280.043504956 -57499.4234033 57023.1598961 184519.340217 -183936.7502 99081.9916577 96580.6503219 121084.005039 -98619.085386 -96173.0181374 -120568.188167 -1903.63469163 177132.010984 -176960.510978 177464.88687 155380.41977 -176433.880227 -152794.912595 158618.223586 152221.266925 -158115.50205 -151763.842444 29532.1542626 35940.9585482 -24213.3448615 -31161.491839 -4661.88629972 162586.749045 -162317.225384 -134227.719193 -116459.862116 134676.738732 116884.147594 -54205.7144847 -37782.4574908 53189.046203 34916.0291956 -154280.807761 155320.797885 -16254.3056699 -7795.2348947 -18189.0797695 23887.8061826 8980.35095162 19760.1753048 6741.45562321 2200.75275907 4507.46538702 983.246759964 1927.43597041 -7354.73575226 91693.9474438 111154.364076 -86967.5463662 -107621.726541 1133.61211407 1892.21738124 4721.46062231 16495.2887951 11472.6771159 1279.77163216 9985.34809062 1929.59849103 20211.8977699 17975.0698472 16306.2760943 14590.8955494 8423.25737063 5736.89102789 -9853.1240245 -9305.66599834 15893.0496893 2678.7882453 15633.2805968 29558.8636424 20560.8110699 -15674.9786933 -29307.2095345 -18516.4420816 76377.7759234 58614.3178972 79402.4622355 -76088.3192651 -58336.4134983 -79055.364177 13210.6135459 16788.2938526 6535.2896768 22769.4951724 33238.2274077 43039.6430669 -22464.5330246 -32977.9741129 -42668.8567836 -101465.153506 -120602.221041 -133452.031319 101283.870118 120994.052976 133745.838861 41143.4809144 -41363.9089001 -25150.5950721 -26969.611226 52422.7668917 63268.2387516 43968.759114 40275.6280326 -52294.9577331 -63067.1696478 -43531.8935151 -38632.7122434 -11574.5264366 -3252.01993001 -5726.19649351 16243.6668884 34738.1134425 17144.5705437 2242.28526718 -2380.86231184 -4104.10140362 -1430.63281941 691.048274777 1480.88571462 58434.3970659 32237.4018002 29130.0895246 36712.5621526 -56708.9572206 -33290.6562477 -35375.6659675 -141904.087052 -121422.549329 140909.628573 124610.094667 5068.29116691 5310.64724724 -130441.491535 136410.114129 -17954.9342439 -8462.64131832 -9857.88386635 56012.6318078 29336.2773513 -55501.270753 -28925.7905158 422.903858208 -167.53773634 9415.3457169 11878.6760411 -63024.1012465 -88406.6460646 -20500.9672824 -522.668644992 -1788.2662485 -10294.325047 -10116.039794 -10541.6642031 -9419.85657851 -4867.35508512 -6948.3833514 10467.7811102 11947.6090987 -75660.8886713 -62525.9638949 -96699.4671273 -118499.2336 -96474.1917618 4593.59663867 3139.02575365 113830.783539 1448.34025061 -10732.0946766 -3285.38733482 -10290.6438643 -70.334370477 -116299.49467 -127289.847238 110124.25614 122783.119182 402.673197037 1415.35486524 -1115.11492515 -1072.04248079 72999.1289044 68860.5233141 95438.1551526 82074.4478809 4081.67615179 -3245.49568599 -1872.91772433 -10488.8737708 3852.61087169 -367.314930641 2078.88133487 -2280.12848828 -608.09074153 6985.56937024 418.795347246 13703.3326604 18168.2463054 -14101.1471027 -4991.10983841 1553.58873767 -11944.1583071 22052.962278 23574.5920441 18179.2844309 5608.24905041 5243.65307372 -3805.12069064 -5234.38969688 -113.858859123 1687.28605305 12087.5341885 12587.0798197 8786.06304499 19202.083752 17106.9982778 -5513.50836194 -6432.59734802 -4859.76338302 -12493.2971791 -13772.4261139 -25853.8994762 -19575.8650433 -17454.661934 -10691.3294972 -10086.5361111 -6550.00135044 -10943.1467975 -21509.8622682 -25470.0423823 -17652.6927621 -17859.0164828 -20723.2351894 -16097.5024638 2435.44824028 -919.463775244 -10395.4827365 90294.1147235 -90299.7643567 74309.7520392 77722.1348511 -74886.4484075 -79166.1387608 -10356.8646656 -22077.4417558 468.343415976 -2938.30586653 -3485.4328951 15294.4183561 -15146.0855788 1020.99471294 -472.687151374 57535.5419409 -56993.5924921 -184184.088351 184266.379112 -98636.0997944 -96206.8555986 -120610.637029 98976.2366919 96440.3311046 120940.592221 1873.19785788 -176861.565212 177240.163046 -177248.949822 -155206.384217 176682.690309 152974.613383 -158210.419552 -151886.779826 158432.815203 152016.825356 -29603.1247741 -36009.2179339 24187.6871749 31142.5364306 4622.96278307 -162314.840587 162572.753091 134526.200519 116699.070806 -134273.007495 -116566.380523 54237.5006756 37775.2817239 -53171.8296255 -34972.9024559 154493.535452 -155107.974202 16206.9785678 7725.38408254 18145.675776 -23994.2793428 -9112.40209741 -19861.9860876 -6800.19437314 -2299.04668891 -4687.01088633 -1141.68240832 -2021.14223459 7149.82727856 -91570.3926637 -110977.639422 87059.372044 107760.073878 -1184.41143558 -1974.4124815 -4802.38140516 -16810.2455132 -12496.6244438 -1476.48633614 -10098.19821 -1996.79320176 -20444.868318 -18128.9309405 -16423.7921651 -14724.9860537 -8491.79678394 -5847.62215542 9055.87142715 9263.48458726 -15955.7373995 -2735.90918269 -15588.8368483 -29392.775215 -20590.843235 15724.8624051 29416.090504 18520.2820185 -76144.2871839 -58391.4356545 -79088.7128283 76255.231841 58502.7320069 79293.5250792 -13381.3701863 -16931.3672637 -6590.15650629 -22442.0737465 -32990.6977625 -42668.3809161 22717.1452823 33161.467031 42957.8431369 101619.557761 120808.319307 133664.418771 -101074.524225 -120715.673116 -133468.127707 -41162.5722343 41217.2282643 25217.1776684 26949.2529108 -52303.3954341 -63135.6313813 -43954.0200034 -40276.3730489 52392.6216964 63162.7472174 43554.9666922 38659.3971136 11480.3225245 3169.4002219 5585.46815582 -16301.4040209 -34769.8149812 -17224.6043731 -2315.80151943 2313.12452085 4002.96466751 1292.72198769 -944.613358531 -1721.56614279 -58415.3162436 -32297.5252582 -29191.4724891 -36743.7455161 56739.8182037 33274.489106 35367.3512597 142109.553642 121582.401431 -140669.091163 -124407.336209 -5301.87339935 -5525.49942153 130601.595013 -136233.569768 17921.7008875 8448.5459944 9824.76495923 -55508.67529 -28892.5160035 55929.8001953 29294.7223196 -666.916581079 -17.8993622053 -9520.22346293 -12035.2160076 63063.1719754 88488.4424577 20301.9209212 315.649673965 1574.88244124 10109.7441141 9962.32306609 10352.7734343 9375.86488276 4831.49204137 6907.47824802 -10558.3091955 -12030.0477573 75668.3154827 62584.3692669 96793.9073088 118629.174833 96559.9329212 -4621.99094882 -3181.86008232 -113697.046544 -1514.43085698 10680.7328658 3218.62689066 10233.9481814 58.5774736401 116394.428495 127429.763588 -110034.982863 -122666.483902 -427.424483466 -1439.76906299 1100.34670812 1053.15935813 -72948.1986895 -68838.343841 -95339.8295488 -82031.3157051 -4135.3935957 3211.69403154 1838.0417938 10402.6918245 -3947.27282277 348.469532902 -2114.58695629 2218.37414692 578.488334811 -7168.68688237 -623.337553403 -13837.4852771 -18221.1653599 13950.2544087 4779.06557014 -1729.98633172 11777.8689817 -22188.1561408 -23712.9401139 -18299.5088493 -5726.97653022 -5877.65711015 4045.00341149 5137.68682466 59.3399897624 -1750.56038719 -12166.5764852 -12673.1304692 -8898.48823415 -19311.9097641 -17203.7021743 5340.1343069 6286.03047333 4665.59459878 12306.4675999 13582.8316719 25651.5279804 19429.8966321 16684.1864317 10572.8975711 9955.12091798 6419.63114793 10816.1160781 20812.3603802 25241.7237416 17472.6720732 17653.7219558 20179.7918924 15916.6927226 -2526.74339546 798.820264178 10235.7614903 160333.195513 79729.1721315 110216.971119 158457.024995 151704.16855 157657.721689 125384.566242 36463.5842121 80489.9733003 27263.1971673 33256.9239535 103664.086405 50144.408602 94041.5299743 78910.0811106 74034.5071641 103338.078518 202177.8432 182654.25688 166650.450192 93959.4248776 162981.973325 200602.563715 166007.582399 -159986.785669 -79869.3009192 -109718.869591 -158201.730396 -151338.359091 -157193.045859 -124996.655542 -36100.9933022 -79917.4966368 -26739.8167874 -32836.9050022 -103280.400769 -49801.5581922 -93055.2566627 -77734.2511287 -74370.2690015 -103248.228901 -201895.721028 -182331.618789 -166337.012101 -94301.8475337 -162596.162784 -200298.572166 -165700.227823 -159991.7695 -79330.6254903 -109775.748143 -158081.632263 -151325.049885 -157257.194597 -124980.201546 -36042.0268415 -80063.6824391 -26774.1178487 -32769.492255 -103211.137683 -49724.2410573 -93624.981578 -78508.5523137 -73625.7941532 -102937.56471 -201853.846297 -182308.952063 -166216.786126 -93543.0209987 -162548.243325 -200241.424595 -165648.083229 160293.918685 80253.0031438 110135.126292 158551.996555 151680.813407 157560.774051 125368.979086 36511.6554078 80319.5638424 27219.4248275 33316.0035168 103708.097708 50208.8693406 93446.6733877 78120.3656003 74765.4658234 103643.833011 202222.687731 182670.408616 166765.948515 94712.3611966 163016.224871 200627.299262 166041.636926 -160207.01231 -79408.9112176 -158278.840547 -109900.843665 -157449.156918 -151535.959348 -125189.65643 -36083.1849338 -80155.5629326 -26844.9472872 -32913.0216724 -103396.263744 -49896.3863031 -93743.9011694 -78584.8328848 -73712.0877655 -103048.312108 -201751.880314 -182418.338387 -166462.207683 -93664.5128494 -162733.634565 -200592.05431 -165890.427245 160411.777069 80371.3079343 158696.31894 110252.940104 157640.956945 151727.163367 125364.584732 36526.085398 80356.7031288 27188.822021 33189.1804558 103673.594991 50106.8370272 93519.2211723 78211.9923008 74861.5143614 103783.259166 202091.003411 182781.078816 166962.607971 94828.357631 163194.048179 200907.238466 166213.272046 160514.028501 79793.5272508 158627.524421 110319.98972 157810.30324 151867.915542 125540.721319 36469.7797778 80542.4932871 27284.5714377 33347.9828757 103795.8782 50261.5130975 94129.7166957 78964.0947881 74108.7932659 103438.721451 202067.473808 182749.330146 166877.475415 94067.6185613 163150.613259 200911.545888 166226.703761 -160120.560866 -80003.8328777 -158361.04304 -109860.367108 -157293.738306 -151409.396292 -125022.393764 -36148.211235 -79990.7385893 -26754.5232214 -32754.1872604 -103281.146471 -49743.9662684 -93158.4256852 -77848.6462865 -74478.6250252 -103398.156156 -201781.579395 -182459.262019 -166547.099414 -94433.7074897 -162791.148159 -200594.315999 -165882.276044</DataArray>