<?xml version="1.0" ?>
<VTKFile byte_order="LittleEndian" type="PolyData" version="0.1">
  <PolyData>
    <Piece NumberOfPoints="649" NumberOfPolys="1294">
      <Points>
        <DataArray NumberOfComponents="3" format="ascii" type="Float32">-7.50000026528e-08 0.0 -5.49999981558e-07 0.0 1.50000005306e-07 -5.49999981558e-07 7.50000026528e-08 0.0 -5.49999981558e-07 0.0 -1.50000005306e-07 -5.49999981558e-07 -1.24999999684e-07 0.0 -4.99999998738e-07 0.0 2.00000002337e-07 -4.99999998738e-07 1.24999999684e-07 0.0 -4.99999998738e-07 0.0 -2.00000002337e-07 -4.99999998738e-07 -1.24999999684e-07 0.0 4.99999998738e-07 0.0 2.00000002337e-07 4.99999998738e-07 1.24999999684e-07 0.0 4.99999998738e-07 0.0 -2.00000002337e-07 4.99999998738e-07 -7.50000026528e-08 0.0 5.49999981558e-07 0.0 1.50000005306e-07 5.49999981558e-07 7.50000026528e-08 0.0 5.49999981558e-07 0.0 -1.50000005306e-07 5.49999981558e-07 -7.15085590741e-08 4.52338682067e-08 -5.49999981558e-07 -6.03087286777e-08 8.91707898631e-08 -5.49999981558e-07 -3.84819820454e-08 1.28749945816e-07 -5.49999981558e-07 3.84819820454e-08 1.28749945816e-07 -5.49999981558e-07 6.03087286777e-08 8.91707898631e-08 -5.49999981558e-07 7.15085590741e-08 4.52338682067e-08 -5.49999981558e-07 7.15085590741e-08 -4.52338682067e-08 -5.49999981558e-07 6.03087286777e-08 -8.91707898631e-08 -5.49999981558e-07 3.84819820454e-08 -1.28749945816e-07 -5.49999981558e-07 -3.84819820454e-08 -1.28749945816e-07 -5.49999981558e-07 -6.03087286777e-08 -8.91707898631e-08 -5.49999981558e-07 -7.15085590741e-08 -4.52338682067e-08 -5.49999981558e-07 -1.22079754306e-07 4.29781685796e-08 -4.99999998738e-07 -1.13117927469e-07 8.51063788332e-08 -4.99999998738e-07 -9.74701706014e-08 1.25215379398e-07 -4.99999998738e-07 -7.39634202773e-08 1.61230573781e-07 -4.99999998738e-07 -4.11570226788e-08 1.88848119365e-07 -4.99999998738e-07 4.11570226788e-08 1.88848119365e-07 -4.99999998738e-07 7.39634202773e-08 1.61230573781e-07 -4.99999998738e-07 9.74701706014e-08 1.25215379398e-07 -4.99999998738e-07 1.13117927469e-07 8.51063788332e-08 -4.99999998738e-07 1.22079754306e-07 4.29781685796e-08 -4.99999998738e-07 1.22079754306e-07 -4.29781685796e-08 -4.99999998738e-07 1.13117927469e-07 -8.51063788332e-08 -4.99999998738e-07 9.74701706014e-08 -1.25215379398e-07 -4.99999998738e-07 7.39634202773e-08 -1.61230573781e-07 -4.99999998738e-07 4.11570226788e-08 -1.88848119365e-07 -4.99999998738e-07 -4.11570226788e-08 -1.88848119365e-07 -4.99999998738e-07 -7.39634202773e-08 -1.61230573781e-07 -4.99999998738e-07 -9.74701706014e-08 -1.25215379398e-07 -4.99999998738e-07 -1.13117927469e-07 -8.51063788332e-08 -4.99999998738e-07 -1.22079754306e-07 -4.29781685796e-08 -4.99999998738e-07 -1.22079754306e-07 4.29781685796e-08 4.99999998738e-07 -1.13117927469e-07 8.51063788332e-08 4.99999998738e-07 -9.74701706014e-08 1.25215379398e-07 4.99999998738e-07 -7.39634202773e-08 1.61230573781e-07 4.99999998738e-07 -4.11570226788e-08 1.88848119365e-07 4.99999998738e-07 4.11570226788e-08 1.88848119365e-07 4.99999998738e-07 7.39634202773e-08 1.61230573781e-07 4.99999998738e-07 9.74701706014e-08 1.25215379398e-07 4.99999998738e-07 1.13117927469e-07 8.51063788332e-08 4.99999998738e-07 1.22079754306e-07 4.29781685796e-08 4.99999998738e-07 1.22079754306e-07 -4.29781685796e-08 4.99999998738e-07 1.13117927469e-07 -8.51063788332e-08 4.99999998738e-07 9.74701706014e-08 -1.25215379398e-07 4.99999998738e-07 7.39634202773e-08 -1.61230573781e-07 4.99999998738e-07 4.11570226788e-08 -1.88848119365e-07 4.99999998738e-07 -4.11570226788e-08 -1.88848119365e-07 4.99999998738e-07 -7.39634202773e-08 -1.61230573781e-07 4.99999998738e-07 -9.74701706014e-08 -1.25215379398e-07 4.99999998738e-07 -1.13117927469e-07 -8.51063788332e-08 4.99999998738e-07 -1.22079754306e-07 -4.29781685796e-08 4.99999998738e-07 -7.15085590741e-08 4.52338682067e-08 5.49999981558e-07 -6.03087286777e-08 8.91707898631e-08 5.49999981558e-07 -3.84819820454e-08 1.28749945816e-07 5.49999981558e-07 3.84819820454e-08 1.28749945816e-07 5.49999981558e-07 6.03087286777e-08 8.91707898631e-08 5.49999981558e-07 7.15085590741e-08 4.52338682067e-08 5.49999981558e-07 7.15085590741e-08 -4.52338682067e-08 5.49999981558e-07 6.03087286777e-08 -8.91707898631e-08 5.49999981558e-07 3.84819820454e-08 -1.28749945816e-07 5.49999981558e-07 -3.84819820454e-08 -1.28749945816e-07 5.49999981558e-07 -6.03087286777e-08 -8.91707898631e-08 5.49999981558e-07 -7.15085590741e-08 -4.52338682067e-08 5.49999981558e-07 -1.10355337313e-07 0.0 -5.35355354714e-07 0.0 1.8535533286e-07 -5.35355354714e-07 1.10355337313e-07 0.0 -5.35355354714e-07 0.0 -1.8535533286e-07 -5.35355354714e-07 -1.10355337313e-07 0.0 5.35355354714e-07 0.0 1.8535533286e-07 5.35355354714e-07 1.10355337313e-07 0.0 5.35355354714e-07 0.0 -1.8535533286e-07 5.35355354714e-07 -1.24999999684e-07 0.0 -4.49999987495e-07 -1.24999999684e-07 0.0 -4.00000004674e-07 -1.24999999684e-07 0.0 -3.49999993432e-07 -1.24999999684e-07 0.0 -3.00000010611e-07 -1.24999999684e-07 0.0 -2.49999999369e-07 -1.24999999684e-07 0.0 -2.00000002337e-07 -1.24999999684e-07 0.0 -1.50000005306e-07 -1.24999999684e-07 0.0 -1.00000001169e-07 -1.24999999684e-07 0.0 -5.00000005843e-08 -1.24999999684e-07 0.0 -1.35504095737e-18 -1.24999999684e-07 0.0 5.00000005843e-08 -1.24999999684e-07 0.0 1.00000001169e-07 -1.24999999684e-07 0.0 1.50000005306e-07 -1.24999999684e-07 0.0 2.00000002337e-07 -1.24999999684e-07 0.0 2.49999999369e-07 -1.24999999684e-07 0.0 3.00000010611e-07 -1.24999999684e-07 0.0 3.49999993432e-07 -1.24999999684e-07 0.0 4.00000004674e-07 -1.24999999684e-07 0.0 4.49999987495e-07 0.0 2.00000002337e-07 -4.49999987495e-07 0.0 2.00000002337e-07 -4.00000004674e-07 0.0 2.00000002337e-07 -3.49999993432e-07 0.0 2.00000002337e-07 -3.00000010611e-07 0.0 2.00000002337e-07 -2.49999999369e-07 0.0 2.00000002337e-07 -2.00000002337e-07 0.0 2.00000002337e-07 -1.50000005306e-07 0.0 2.00000002337e-07 -1.00000001169e-07 0.0 2.00000002337e-07 -5.00000005843e-08 0.0 2.00000002337e-07 -1.35504095737e-18 0.0 2.00000002337e-07 5.00000005843e-08 0.0 2.00000002337e-07 1.00000001169e-07 0.0 2.00000002337e-07 1.50000005306e-07 0.0 2.00000002337e-07 2.00000002337e-07 0.0 2.00000002337e-07 2.49999999369e-07 0.0 2.00000002337e-07 3.00000010611e-07 0.0 2.00000002337e-07 3.49999993432e-07 0.0 2.00000002337e-07 4.00000004674e-07 0.0 2.00000002337e-07 4.49999987495e-07 1.24999999684e-07 0.0 -4.49999987495e-07 1.24999999684e-07 0.0 -4.00000004674e-07 1.24999999684e-07 0.0 -3.49999993432e-07 1.24999999684e-07 0.0 -3.00000010611e-07 1.24999999684e-07 0.0 -2.49999999369e-07 1.24999999684e-07 0.0 -2.00000002337e-07 1.24999999684e-07 0.0 -1.50000005306e-07 1.24999999684e-07 0.0 -1.00000001169e-07 1.24999999684e-07 0.0 -5.00000005843e-08 1.24999999684e-07 0.0 -1.35504095737e-18 1.24999999684e-07 0.0 5.00000005843e-08 1.24999999684e-07 0.0 1.00000001169e-07 1.24999999684e-07 0.0 1.50000005306e-07 1.24999999684e-07 0.0 2.00000002337e-07 1.24999999684e-07 0.0 2.49999999369e-07 1.24999999684e-07 0.0 3.00000010611e-07 1.24999999684e-07 0.0 3.49999993432e-07 1.24999999684e-07 0.0 4.00000004674e-07 1.24999999684e-07 0.0 4.49999987495e-07 0.0 -2.00000002337e-07 -4.49999987495e-07 0.0 -2.00000002337e-07 -4.00000004674e-07 0.0 -2.00000002337e-07 -3.49999993432e-07 0.0 -2.00000002337e-07 -3.00000010611e-07 0.0 -2.00000002337e-07 -2.49999999369e-07 0.0 -2.00000002337e-07 -2.00000002337e-07 0.0 -2.00000002337e-07 -1.50000005306e-07 0.0 -2.00000002337e-07 -1.00000001169e-07 0.0 -2.00000002337e-07 -5.00000005843e-08 0.0 -2.00000002337e-07 -1.35504095737e-18 0.0 -2.00000002337e-07 5.00000005843e-08 0.0 -2.00000002337e-07 1.00000001169e-07 0.0 -2.00000002337e-07 1.50000005306e-07 0.0 -2.00000002337e-07 2.00000002337e-07 0.0 -2.00000002337e-07 2.49999999369e-07 0.0 -2.00000002337e-07 3.00000010611e-07 0.0 -2.00000002337e-07 3.49999993432e-07 0.0 -2.00000002337e-07 4.00000004674e-07 0.0 -2.00000002337e-07 4.49999987495e-07 -1.16908189034e-22 -1.91685313884e-21 -5.49999981558e-07 -5.46846701255e-09 5.00337264953e-08 -5.49999981558e-07 5.46846701255e-09 -5.00337264953e-08 -5.49999981558e-07 -6.20321516376e-10 1.05059022815e-07 -5.49999981558e-07 6.20321516376e-10 -1.05059022815e-07 -5.49999981558e-07 -4.08206055624e-08 5.62385409353e-08 -5.49999981558e-07 4.08206055624e-08 -5.62385409353e-08 -5.49999981558e-07 3.79462719025e-08 -1.92274320909e-08 -5.49999981558e-07 -3.79462719025e-08 1.92274320909e-08 -5.49999981558e-07 3.31817453514e-08 7.5731485083e-08 -5.49999981558e-07 -3.31817453514e-08 -7.5731485083e-08 -5.49999981558e-07 -2.9002917401e-08 8.54708019915e-08 -5.49999981558e-07 2.9002917401e-08 -8.54708019915e-08 -5.49999981558e-07 3.53613529569e-08 2.52952752078e-08 -5.49999981558e-07 -3.53613529569e-08 -2.52952752078e-08 -5.49999981558e-07 -1.16908189034e-22 -1.91685313884e-21 5.49999981558e-07 -5.46846701255e-09 5.00337264953e-08 5.49999981558e-07 5.46846701255e-09 -5.00337264953e-08 5.49999981558e-07 -6.20321516376e-10 1.05059022815e-07 5.49999981558e-07 6.20321516376e-10 -1.05059022815e-07 5.49999981558e-07 -4.08206055624e-08 5.62385409353e-08 5.49999981558e-07 4.08206055624e-08 -5.62385409353e-08 5.49999981558e-07 3.79462719025e-08 -1.92274320909e-08 5.49999981558e-07 -3.79462719025e-08 1.92274320909e-08 5.49999981558e-07 3.31817453514e-08 7.5731485083e-08 5.49999981558e-07 -3.31817453514e-08 -7.5731485083e-08 5.49999981558e-07 -2.9002917401e-08 8.54708019915e-08 5.49999981558e-07 2.9002917401e-08 -8.54708019915e-08 5.49999981558e-07 3.53613529569e-08 2.52952752078e-08 5.49999981558e-07 -3.53613529569e-08 -2.52952752078e-08 5.49999981558e-07 -8.24717787395e-08 1.50292777334e-07 -2.63718874294e-07 -7.75635129457e-08 1.56840002319e-07 -2.10379283772e-07 -7.92520324921e-08 1.5466395098e-07 -1.50828100232e-07 -7.45080441789e-08 1.60587333653e-07 -8.89702960194e-08 -7.03929501356e-08 1.65271814012e-07 -3.83416221439e-07 -8.08624704973e-08 1.52515013951e-07 -3.58615288576e-08 -8.19417280695e-08 1.51033162865e-07 2.20169596332e-07 -8.24408914468e-08 1.50336148863e-07 2.72938677881e-07 -7.
[...]
      <CellData>
        <DataArray Name="rho_e_real" format="ascii" type="Float32">26837.4696258 -27077.5711297 -30694.4882447 30449.2667267 133266.207566 -133565.906669 -18790.0812113 18548.898629 96225.1293265 45980.5722847 -96501.7231191 -46215.6346633 -95290.1996273 -48397.2520573 95019.6991707 48171.1390209 -95149.1210947 -57293.4021377 -28155.6523043 94888.1439852 57033.8422003 27915.5126367 124044.898552 -124327.06511 147769.291154 115566.436043 35408.3566467 65614.0051634 -148075.165549 -115848.837958 -35681.7845922 -65882.1381439 -44654.6922926 -109380.713986 44397.3151617 109114.130304 -146260.104006 -117775.666432 -24827.4088933 -58272.7843947 145963.579692 117488.789393 24547.5039957 57993.639618 -28978.5000199 28692.0764844 28492.1947664 -28797.6990598 -132326.890247 131979.306962 19782.0060851 -20055.5320025 -94754.1620134 -44538.375112 94415.9189808 44253.0685051 96551.2041579 49691.6414677 -96849.9375862 -49950.7850087 93525.4949249 55897.1088293 26555.0200519 -93827.2075775 -56190.1307227 -26831.4125689 -125440.875137 125138.382862 -147543.701515 -115042.079653 -35222.3722854 -65058.5494417 147207.895052 114728.726407 34924.1906701 64761.6644611 45217.8547227 109815.492858 -45500.4321574 -110100.432754 146208.235562 117353.029012 24965.0003434 57948.6957114 -146525.487649 -117663.151153 -25268.7622739 -58250.0625245 76740.5534344 -76651.5611767 149317.782717 141684.607022 -149744.134417 -128562.358128 -173096.473629 -43531.0453273 15793.0208732 -14630.3385066 47428.688993 -257203.797894 209157.951196 -211016.088946 21302.2030067 -21531.4394732 22613.595611 990.652021883 20579.7625507 -23394.7996877 -1637.0323127 -21297.7154414 44858.286428 18775.1399884 -19370.0807432 35155.7240896 21162.6363253 1265.79685874 -20437.8999863 2676.76313079 19358.5953577 26955.6900669 -19883.7604669 -27389.9096537 -191170.734026 -246112.078785 201789.033994 245782.460468 17353.5040129 -17853.8609247 -28730.0626603 17016.091269 28048.0744152 -17234.611962 203129.428065 244430.3864 -200853.203252 -250429.775878 -4740.11842896 6100.53100447 279168.643431 304028.374303 -269788.10047 -325937.657698 -293563.995382 -287776.665425 -323013.046446 78878.1596591 92137.4989175 -262489.327585 -30949.8786008 -140852.713535 -71660.1063667 149929.428042 77408.8364922 286178.404836 319546.458387 163371.054404 155757.634006 186603.152615 189750.534356 175818.468451 200064.683285 222083.386624 -362274.189607 -343985.821585 -36349.5722187 -51665.5504522 -89934.0215852 37512.4741319 52795.0954507 93767.7716217 255674.340963 263065.46028 -67592.2581355 -52256.2114142 -15123.6333921 68037.0741278 52804.12635 14954.9023995 -219376.989418 203862.012966 272891.507601 -212036.499027 -270091.917637 87649.4032102 106094.997529 -6092.6257872 -34003.7622944 -11775.8954444 6205.86816718 34701.755027 11522.5110818 74238.959991 8370.64695239 15089.3998096 -74942.1782406 -8516.92511009 -15421.65756 -287928.514105 285446.937259 -103994.504773 -102740.449276 -168045.533915 -148444.656753 105090.930125 103735.434225 167727.142044 159786.64419 -382934.445839 -375686.983684 -368873.398359 -344214.611681 -294962.191475 -323502.457143 300299.877389 309598.080394 340225.813228 2729.67575632 23303.9977579 -149213.215411 -39350.1852977 -156112.187638 249227.262597 267178.476756 318803.210655 326471.349486 -218821.801542 -274353.741643 -311529.832807 -275373.923106 213913.451501 268701.221918 284260.53606 -4099.13701052 49031.247095 1675.09727171 -45878.8167407 168829.408853 -93611.6877506 -48922.0027117 40898.1053123 -25138.162351 14171.1767264 25920.1461467 10584.4043459 48868.6750514 96820.596907 -255012.215446 5949.00486465 10275.9413472 -6791.18575458 -10959.1175848 -24205.3828046 -43759.0380447 -95641.0445876 220837.620689 141213.584108 -201700.694079 -161823.88441 -283166.385731 -76242.2430649 -206254.067058 -155241.661223 -328910.63233 -350004.65279 -317037.182903 -59299.1795177 -106818.45706 338569.663191 321920.73236 166339.384261 91746.32203 43389.7007959 88008.9598331 -40101.2486994 -78292.1533054 -84312.2605081 18747.3544411 47692.8446411 350344.56054 366924.393461 193114.396731 223644.102087 137825.007869 65352.6395739 127322.632321 -80259.6931305 -197243.705356 -181598.048919 -179283.017004 -240568.966426 92215.2397013 55491.6743221 -106958.847455 -65182.4003919 198121.864083 -38621.0628823 -84562.9037127 -202251.614927 -210318.59532 -124273.091947 -182277.016935 146669.435893 145794.276178 72473.4995298 -23759.4844047 -6565.28673446 -346912.971001 -168426.856802 -172162.589324 -198831.99188 -136485.722232 -355711.772945 -362767.855663 -63068.1343193 -74845.3192011 -309432.193039 -82466.1381786 120480.406535 121280.921586 239925.358841 282960.424431 216032.794764 292119.163517 295620.512957 64657.4070182 2048.52485762 48694.3618039 8386.34495038 371653.435288 343324.441459 339174.496798 367757.459588 369793.361877 358367.797874 -220374.251794 -189199.355172 -288488.985971 -283144.54524 -213578.392674 -307472.459175 -76729.5940116 77201.421182 -148572.346895 -142152.958335 150892.388844 129189.807067 189576.146596 170332.674838 6147.59059995 48585.8671079 210087.597698 -14982.3397848 16197.7518811 -24143.8445262 263055.571055 -208412.378141 212066.664842 -21490.6538189 21067.3812802 -22939.0527225 -1274.34298692 -20838.9794406 22324.3351734 735.3742378 20288.8187641 -42999.856588 -18937.6073729 18977.4374796 -21320.9684699 -1479.63372369 20118.2645631 -2977.10569716 -19522.8204436 -27146.6622704 19186.5032751 26832.395542 193945.202514 247489.174496 -184794.81512 -243990.519744 -42858.1585394 -17579.5521373 17461.2804463 27872.4350751 -17523.6035781 -28324.4961054 17334.966368 -202158.942032 -244575.056847 202099.359216 251956.447991 4435.81860118 -6290.29135625 -267915.076917 -331265.596416 -304483.290786 270674.986897 326942.04467 294668.432987 -81731.0520685 -72609.0379937 291916.558258 323554.512657 22062.9792451 261530.594597 141377.007509 71884.2725537 -150075.920187 -77721.2151506 -139425.596871 -332108.962488 -309992.059577 -190103.245069 -381271.867506 -371709.473834 -352854.773769 -371498.943122 -356018.073936 -373953.948589 -322924.969894 -350633.012145 362588.268716 344817.217692 -360803.971458 -344004.045877 -216127.148524 -257713.755584 38545.2009861 53104.1709762 92237.7830993 -37705.2061317 -51975.1481399 -84157.2561747 68390.0906255 53146.6580621 15352.5748391 -67945.1076896 -52596.0303313 -15413.1853857 214591.302693 273975.472726 -127315.443808 6662.79640699 35173.8304072 11967.7370742 -6517.04905671 -34449.6441033 -12179.3531536 -74299.2565733 -8917.28496707 -15541.4984865 75351.3080929 8445.79869843 15400.8194358 288145.918093 -279973.352214 -320274.44777 -313253.814774 105749.81198 103790.75521 169768.983041 150461.871247 -104415.639125 -102795.876651 -169997.164376 -142706.455547 381035.04723 375992.827242 368828.066725 344585.769068 295305.064789 324216.016069 -23043.4968207 -27012.4454542 31199.6047463 33734.6171628 91295.8046694 174627.438283 219466.198515 275568.229232 312455.259744 276141.781843 -215460.385163 -269967.093887 -284795.132957 3826.64974098 -49461.9842796 -1779.27820808 45917.4218801 103060.331527 48343.6604147 -41267.5538453 25086.3519471 -159709.883288 -42036.9284543 -81891.7939795 -6319.29612366 -10525.8175346 5561.23182885 9877.16282049 39610.9071368 25288.9218163 46929.6215379 99224.1807769 -223782.546813 -142086.790696 297185.704039 63722.9089452 117795.357104 331193.202152 349629.412231 308668.684218 -194794.243837 -84336.9208981 -158141.511549 -324860.434309 -286890.018009 -193524.899004 -230518.399382 -138680.364762 -66020.9314596 -128173.633455 -157120.169445 -196349.705289 80304.5019057 -266815.268144 -271727.769891 -304873.428265 -272269.033012 -58308.4630273 -92566.712753 -55842.3247391 106906.794488 65129.7195766 -89713.6699297 -106713.907064 -34575.558457 -75506.9010709 202678.863508 210498.4478 124519.594975 182321.266013 -225873.192061 -177527.283824 -140767.652055 84407.0741241 -18265.3248189 -23297.6917372 -56995.0463382 -14018.1567351 -27131.1860173 -120479.288106 -44105.8307858 -129594.518141 -237686.889566 200949.267602 173053.953086 118012.202128 234323.551033 -292433.160991 -330179.298915 -308189.371413 -69587.2323595 -30884.6953754 87233.5272796 50684.3733584 -8150.14700656 -8705.91155577 -257535.586348 -154944.97989 -156630.807539 -275438.21994 -228221.268006 141232.242485 146367.789101 222101.721481 224222.775109 219793.658447 191415.35622 228047.384458 202199.420373 98675.2323375 155588.180094 105082.598425 133462.27733 283797.920944 329982.589826 349542.796525 328523.817381 362881.272833 371515.979061 21433.7839565 53001.2011367 113594.922782 -76848.4100455 76431.0300571 -149210.687278 -142534.649964 149551.658938 128383.559988 187971.174074 168238.48205 8380.66194539 48136.5993422 209018.541248 -15859.5358329 14487.2567502 -23155.6722544 262153.445505 -209145.931767 210869.715028 -21631.1595263 21254.5604733 -22947.6109207 -1260.46969957 -20941.6293333 23081.9737804 1406.33316229 20961.4002095 -43543.2284918 -19051.983899 19154.0852299 -21408.9983061 -1452.05839767 20155.1982981 -2915.70448406 -19695.1227552 -27236.6602366 19608.1411087 27190.4829097 191880.863226 245692.029699 -186300.325279 -245165.853838 -43952.1467764 -17611.5856165 17700.2595101 28481.6528273 -17207.2363293 -28359.1800512 16967.3827727 -203024.892831 -245679.603498 200682.960053 250353.270391 4593.47473766 -6313.79221987 -269046.478904 -332010.215112 -305370.117932 269003.57334 325789.250063 293360.731525 -80450.8649972 -71613.1893614 290645.484639 322588.064232 23212.9374505 261086.639069 140678.152801 71457.9198617 -150390.408339 -77724.512224 -138560.299151 -332689.976332 -310560.763743 -189969.600653 -381401.210764 -371877.073977 -353213.359368 -371907.43766 -356080.428841 -374058.72891 -323112.921487 -350889.471664 362370.688004 344052.196005 -360958.182253 -344534.236362 -215879.294729 -258065.698109 36305.2954065 51542.7622773 89862.4862177 -39216.7580543 -52828.6078664 -86150.3708107 67376.7214202 52042.7854202 14869.3085447 -68179.0262266 -52898.6836043 -15134.4418278 212781.684988 272378.157863 -126153.145616 5866.78792503 33828.828236 11519.9445043 -6460.9419294 -34911.9430821 -11819.341627 -74336.6335612 -8551.80557331 -15273.1352906 74728.9619251 8275.97513573 15176.7358299 287915.193847 -280135.05637 -320477.378723 -313764.625925 103839.866311 102546.594678 167931.30993 148344.889644 -105459.140972 -103350.415863 -171153.676651 -144087.121256 380878.397915 375730.2722 368229.97362 344199.29613 294922.073193 323423.578633 -21169.5495298 -25611.9261851 32636.2454697 35444.0599648 91109.0598849 174308.013801 218695.569509 274264.734772 311419.613531 275290.932504 -215909.475497 -270828.04868 -285455.059755 4065.46570874 -49354.2836444 -1904.75353539 45679.6481137 101498.206809 45569.6747102 -41215.3766015 24943.9237166 -161302.541646 -42869.5447664 -83426.6424457 -6320.74739963 -10588.3281023 6368.64352049 10599.9778314 41432.7231389 26661.0669335 44172.2005515 96785.0523861 -224147.038561 -142247.929863 297018.491822 64719.7621961 119096.212607 330494.604319 349165.16584 308242.726463 -195922.196663 -85401.4082126 -158945.149666 -325183.1476 -287090.455487 -193594.180443 -230666.479841 -138780.894198 -65988.7164295 -128215.104178 -156893.011467 -195921.161823 80111.5606194 -267640.685561 -272664.33285 -305660.536566 -273289.068182 -57029.04365 -92557.241518 -55833.7220909 106846.966111 65035.6550866 -88285.1110746 -105871.603302 -34606.9660669 -75446.420947 202139.226728 210250.588175 124124.922937 182211.993043 -226164.843064 -177803.61156 -140912.248067 85034.8810734 -17608.1243158 -21312.4764525 -55275.4615037 -12163.4574487 -25604.6187897 -120292.09205 -43565.950006 -129122.582226 -237564.525424 201378.253024 173174.937537 118999.836747 234564.004619 -292401.077954 -330185.50766 -308216.068637 -69449.827446 -30653.3140907 87512.3634502 50868.9574262 -6440.90994088 -6927.34495009 -257347.985045 -154202.872935 -156092.471356 -275308.629372 -227908.652512 142317.93854 147219.084961 222182.182388 224544.691481 219899.979378 191624.96341 228282.495576 202287.703286 99699.313612 156211.733889 105799.700814 134318.58091 283832.666082 329922.82166 349232.007116 328400.690287 362814.869049 371363.708538 23214.2040056 54609.9788194 114676.668257 76497.2465383 -77231.9066034 148425.418104 142023.920956 -150854.534347 -129145.42774 -189057.164362 -169965.923342 -5456.05171104 -48594.7111314 -209612.645773 14856.3306489 -16268.5017682 24461.0585926 -262657.328872 208357.760552 -211971.376241 21251.0584309 -21439.7774566 22662.0931927 1072.31099814 20536.0093466 -22779.8088874 -1098.08210258 -20746.1736375 43485.7550201 18723.6276445 -19290.0015411 21106.1937374 1300.36899276 -20396.5930731 2762.17123476 19270.0525519 26948.5669811 -19587.6272735 -27169.7568258 -193687.856843 -247219.402989 184969.69852 244125.769871 42800.2111612 17390.0814209 -17762.8551393 -28271.4292707 17183.1898787 28085.7813992 -17496.8689254 202146.445029 244650.796307 -201930.383561 -251754.417917 -4689.30492461 6117.41916734 268130.606124 331496.310647 304645.261216 -270381.095489 -326664.457918 -294404.360785 82144.1160594 72949.6094334 -291554.893554 -323226.969049 -21774.6136002 -261171.451043 -141390.83239 -71937.3473994 149917.943862 77508.7549237 139777.641273 332396.232318 310274.230796 190362.557506 384349.315768 374616.258717 353227.888653 371590.788302 355255.206231 375481.252046 323260.862613 350946.415127 -362487.890191 -344590.779553 359774.413809 344297.332518 216478.127269 258061.543191 -38451.6480888 -53126.4439146 -92140.6659977 37780.4572164 51888.6678366 84503.8141006 -68466.4115358 -53195.7959604 -15499.9600453 67693.9390238 52354.1260575 15068.4798336 -214223.415976 -273618.088331 127764.7876 -6841.43838302 -35283.2446702 -12184.3876564 6196.30272335 34209.3117096 11829.9767115 74057.4562395 8618.33973621 15245.1081249 -75424.2547705 -8573.35542839 -15550.310073 -288122.379744 278543.05298 320556.660119 313337.431314 -105701.735396 -103726.620424 -169632.636558 -150239.356545 104289.292976 102666.330531 169970.130335 142779.090093 -381236.051505 -375772.720624 -368599.655774 -344484.598378 -295212.259729 -324040.637518 23657.769462 27449.2538577 -30773.351733 -32810.1365698 -90844.2562575 -174186.474418 -219369.043771 -275357.393742 -312268.667132 -276030.726817 215427.714032 270054.018328 284836.13455 -4103.23045168 49233.4819493 1643.72617676 -46026.0356054 -102685.864041 -47202.2445207 41047.0415146 -25198.9375485 160056.678957 41203.9683877 81969.3466249 5974.47868818 10231.5271627 -6038.06941736 -10315.1216417 -40325.1321714 -24289.5764048 -46434.9760744 -98836.5038167 223721.565178 141948.313392 -296874.34203 -62944.9912786 -117307.156584 -330868.558861 -349362.54809 -308304.933212 195037.807721 84724.2148808 158484.681957 325178.953869 287213.722482 193173.136356 230471.557367 138522.792713 65830.6290646 128071.621321 157621.237182 196829.925134 -80389.8787901 267132.917971 271982.448568 305145.998271 272559.422906 58868.4386819 92415.1381092 55644.4770844 -106998.991392 -65236.5279379 90203.5021626 107262.379224 35806.7488698 75958.9956665 -202668.883649 -210489.045034 -124536.381246 -182368.570158 226269.883748 177909.876724 141486.282988 -84406.3815223 18349.7478774 23632.626597 57559.5675042 14829.2881795 28412.5866905 120758.524006 44480.7860196 129779.003835 237490.040287 -200713.687935 -172645.889679 -117597.691834 -234048.060607 292208.043453 330501.611867 308475.945868 70585.3129344 31902.0760303 -88289.2926264 -47681.7635197 9556.06624474 9885.95968609 257862.835093 155258.384039 156890.285466 275715.34546 228483.949438 -140757.859639 -146032.870179 -221748.367524 -223871.501495 -219619.490055 -190735.32917 -227997.125796 -196040.591595 -98371.3540079 -155353.989508 -104801.257668 -133172.254906 -280128.074035 -329138.686029 -349119.60901 -328281.051248 -363188.818702 -371591.738852 -20928.4444854 -52439.6218277 -113121.639868 30449.3942191 107797.395657 105775.102596 28413.721146 -1302.81662169 6209.44339277 1566.85917622 8738.41265868 13859.1086335 -5003.26712703 -18176.6316302 -8216.89885237 -5817.28082971 56885.4062466 58462.8257486 147050.44641 137868.238736 18115.6163984 34122.5186348 101166.84068 149309.37988 77455.2535034 23680.4048215 52626.4995871 -30583.1180529 -108505.319741 -103121.739547 -28211.6030796 857.675681661 -6295.2721883 -2193.65607041 -8281.34464595 -13859.0478815 5438.59721403 17479.7611057 7846.31306094 5057.39801288 -57601.072871 -60860.9712704 -142205.262655 -138907.700243 -18370.1388823 -34293.2660797 -101724.227899 -149902.660468 -77490.9375555 -24034.5074546 -53006.9454472 -30769.9203687 -108138.294992 -106160.044128 -28751.3424844 958.361474839 -6554.78108537 -1958.01218247 -9062.61257927 -14199.2875573 4604.7615931 17683.2406936 7792.89948226 5364.46745467 -57242.4791785 -58788.0736492 -147414.29133 -138231.636377 -18451.185309 -34472.6579376 -101592.487237 -149690.579449 -77854.9627899 -24042.9079813 -52988.0560478 30209.1496853 108165.0647 102745.012837 27831.3819417 -1289.79465809 5876.29921777 1731.01956831 7945.85998159 13493.9850945 -5851.74399145 -18015.7667511 -8339.35840687 -5549.18269071 57245.6498665 60531.2100705 141851.196539 138529.779495 17998.4611703 33923.7107494 101308.673776 149533.195398 77073.483634 23648.091416 52634.4513732 -30314.2778391 -107057.822144 -28139.5035262 -105089.068727 -5972.57573718 1351.2112492 -1688.34588276 -7573.19029804 -12852.7036685 6117.19820997 18015.7598336 8229.13644277 5529.21952094 -56097.2979219 -57506.2264471 -146875.854408 -137718.016046 -18783.1687428 -34343.1546658 -101434.850302 -149078.718288 -77228.2875558 -23567.7019961 -52686.75177 30692.5221404 109022.019631 28379.1559485 103693.216725 6614.06802561 -692.576766476 2185.24132147 9450.52814674 14895.1153132 -4293.11358623 -17595.4494838 -7730.67574711 -5289.5552302 58340.8107361 61785.5107637 142067.928402 138797.664325 18730.500554 34297.6859758 101133.038155 149891.931216 77527.2920583 23577.1788488 52712.7678378 29947.3545409 106662.375552 27747.445121 104647.339659 5553.33283104 -1752.45874009 1271.99271208 7189.65907003 12445.1869384 -6559.1443315 -18493.9241117 -8683.28329678 -5948.59544174 55687.927242 57114.0656631 146478.332149 137320.83312 18433.3906544 33988.3673391 101013.423502 148668.805891 76787.6764049 23199.7054158 52317.8540575 -30957.2495 -109356.089029 -28684.2401126 -104047.396036 -6930.33475121 393.877803402 -2526.29894485 -9799.25059494 -15225.5083396 3876.01540797 17133.1200768 7337.55161535 4898.09361813 -58667.9189049 -62106.9409522 -142435.161051 -139166.820936 -19039.5291692 -34616.4829707 -101547.001668 -150267.780319 -77905.7066682 -23879.8060318 -53033.0131488</DataArray>