<?xml version="1.0" ?>
<VTKFile byte_order="LittleEndian" type="PolyData" version="0.1">
  <PolyData>
    <Piece NumberOfPoints="649" NumberOfPolys="1294">
      <Points>
        <DataArray NumberOfComponents="3" format="ascii" type="Float32">-7.50000026528e-08 0.0 -5.49999981558e-07 0.0 1.50000005306e-07 -5.49999981558e-07 7.50000026528e-08 0.0 -5.49999981558e-07 0.0 -1.50000005306e-07 -5.49999981558e-07 -1.24999999684e-07 0.0 -4.99999998738e-07 0.0 2.00000002337e-07 -4.99999998738e-07 1.24999999684e-07 0.0 -4.99999998738e-07 0.0 -2.00000002337e-07 -4.99999998738e-07 -1.24999999684e-07 0.0 4.99999998738e-07 0.0 2.00000002337e-07 4.99999998738e-07 1.24999999684e-07 0.0 4.99999998738e-07 0.0 -2.00000002337e-07 4.99999998738e-07 -7.50000026528e-08 0.0 5.49999981558e-07 0.0 1.50000005306e-07 5.49999981558e-07 7.50000026528e-08 0.0 5.49999981558e-07 0.0 -1.50000005306e-07 5.49999981558e-07 -7.15085590741e-08 4.52338682067e-08 -5.49999981558e-07 -6.03087286777e-08 8.91707898631e-08 -5.49999981558e-07 -3.84819820454e-08 1.28749945816e-07 -5.49999981558e-07 3.84819820454e-08 1.28749945816e-07 -5.49999981558e-07 6.03087286777e-08 8.91707898631e-08 -5.49999981558e-07 7.15085590741e-08 4.52338682067e-08 -5.49999981558e-07 7.15085590741e-08 -4.52338682067e-08 -5.49999981558e-07 6.03087286777e-08 -8.91707898631e-08 -5.49999981558e-07 3.84819820454e-08 -1.28749945816e-07 -5.49999981558e-07 -3.84819820454e-08 -1.28749945816e-07 -5.49999981558e-07 -6.03087286777e-08 -8.91707898631e-08 -5.49999981558e-07 -7.15085590741e-08 -4.52338682067e-08 -5.49999981558e-07 -1.22079754306e-07 4.29781685796e-08 -4.99999998738e-07 -1.13117927469e-07 8.51063788332e-08 -4.99999998738e-07 -9.74701706014e-08 1.25215379398e-07 -4.99999998738e-07 -7.39634202773e-08 1.61230573781e-07 -4.99999998738e-07 -4.11570226788e-08 1.88848119365e-07 -4.99999998738e-07 4.11570226788e-08 1.88848119365e-07 -4.99999998738e-07 7.39634202773e-08 1.61230573781e-07 -4.99999998738e-07 9.74701706014e-08 1.25215379398e-07 -4.99999998738e-07 1.13117927469e-07 8.51063788332e-08 -4.99999998738e-07 1.22079754306e-07 4.29781685796e-08 -4.99999998738e-07 1.22079754306e-07 -4.29781685796e-08 -4.99999998738e-07 1.13117927469e-07 -8.51063788332e-08 -4.99999998738e-07 9.74701706014e-08 -1.25215379398e-07 -4.99999998738e-07 7.39634202773e-08 -1.61230573781e-07 -4.99999998738e-07 4.11570226788e-08 -1.88848119365e-07 -4.99999998738e-07 -4.11570226788e-08 -1.88848119365e-07 -4.99999998738e-07 -7.39634202773e-08 -1.61230573781e-07 -4.99999998738e-07 -9.74701706014e-08 -1.25215379398e-07 -4.99999998738e-07 -1.13117927469e-07 -8.51063788332e-08 -4.99999998738e-07 -1.22079754306e-07 -4.29781685796e-08 -4.99999998738e-07 -1.22079754306e-07 4.29781685796e-08 4.99999998738e-07 -1.13117927469e-07 8.51063788332e-08 4.99999998738e-07 -9.74701706014e-08 1.25215379398e-07 4.99999998738e-07 -7.39634202773e-08 1.61230573781e-07 4.99999998738e-07 -4.11570226788e-08 1.88848119365e-07 4.99999998738e-07 4.11570226788e-08 1.88848119365e-07 4.99999998738e-07 7.39634202773e-08 1.61230573781e-07 4.99999998738e-07 9.74701706014e-08 1.25215379398e-07 4.99999998738e-07 1.13117927469e-07 8.51063788332e-08 4.99999998738e-07 1.22079754306e-07 4.29781685796e-08 4.99999998738e-07 1.22079754306e-07 -4.29781685796e-08 4.99999998738e-07 1.13117927469e-07 -8.51063788332e-08 4.99999998738e-07 9.74701706014e-08 -1.25215379398e-07 4.99999998738e-07 7.39634202773e-08 -1.61230573781e-07 4.99999998738e-07 4.11570226788e-08 -1.88848119365e-07 4.99999998738e-07 -4.11570226788e-08 -1.88848119365e-07 4.99999998738e-07 -7.39634202773e-08 -1.61230573781e-07 4.99999998738e-07 -9.74701706014e-08 -1.25215379398e-07 4.99999998738e-07 -1.13117927469e-07 -8.51063788332e-08 4.99999998738e-07 -1.22079754306e-07 -4.29781685796e-08 4.99999998738e-07 -7.15085590741e-08 4.52338682067e-08 5.49999981558e-07 -6.03087286777e-08 8.91707898631e-08 5.49999981558e-07 -3.84819820454e-08 1.28749945816e-07 5.49999981558e-07 3.84819820454e-08 1.28749945816e-07 5.49999981558e-07 6.03087286777e-08 8.91707898631e-08 5.49999981558e-07 7.15085590741e-08 4.52338682067e-08 5.49999981558e-07 7.15085590741e-08 -4.52338682067e-08 5.49999981558e-07 6.03087286777e-08 -8.91707898631e-08 5.49999981558e-07 3.84819820454e-08 -1.28749945816e-07 5.49999981558e-07 -3.84819820454e-08 -1.28749945816e-07 5.49999981558e-07 -6.03087286777e-08 -8.91707898631e-08 5.49999981558e-07 -7.15085590741e-08 -4.52338682067e-08 5.49999981558e-07 -1.10355337313e-07 0.0 -5.35355354714e-07 0.0 1.8535533286e-07 -5.35355354714e-07 1.10355337313e-07 0.0 -5.35355354714e-07 0.0 -1.8535533286e-07 -5.35355354714e-07 -1.10355337313e-07 0.0 5.35355354714e-07 0.0 1.8535533286e-07 5.35355354714e-07 1.10355337313e-07 0.0 5.35355354714e-07 0.0 -1.8535533286e-07 5.35355354714e-07 -1.24999999684e-07 0.0 -4.49999987495e-07 -1.24999999684e-07 0.0 -4.00000004674e-07 -1.24999999684e-07 0.0 -3.49999993432e-07 -1.24999999684e-07 0.0 -3.00000010611e-07 -1.24999999684e-07 0.0 -2.49999999369e-07 -1.24999999684e-07 0.0 -2.00000002337e-07 -1.24999999684e-07 0.0 -1.50000005306e-07 -1.24999999684e-07 0.0 -1.00000001169e-07 -1.24999999684e-07 0.0 -5.00000005843e-08 -1.24999999684e-07 0.0 -1.35504095737e-18 -1.24999999684e-07 0.0 5.00000005843e-08 -1.24999999684e-07 0.0 1.00000001169e-07 -1.24999999684e-07 0.0 1.50000005306e-07 -1.24999999684e-07 0.0 2.00000002337e-07 -1.24999999684e-07 0.0 2.49999999369e-07 -1.24999999684e-07 0.0 3.00000010611e-07 -1.24999999684e-07 0.0 3.49999993432e-07 -1.24999999684e-07 0.0 4.00000004674e-07 -1.24999999684e-07 0.0 4.49999987495e-07 0.0 2.00000002337e-07 -4.49999987495e-07 0.0 2.00000002337e-07 -4.00000004674e-07 0.0 2.00000002337e-07 -3.49999993432e-07 0.0 2.00000002337e-07 -3.00000010611e-07 0.0 2.00000002337e-07 -2.49999999369e-07 0.0 2.00000002337e-07 -2.00000002337e-07 0.0 2.00000002337e-07 -1.50000005306e-07 0.0 2.00000002337e-07 -1.00000001169e-07 0.0 2.00000002337e-07 -5.00000005843e-08 0.0 2.00000002337e-07 -1.35504095737e-18 0.0 2.00000002337e-07 5.00000005843e-08 0.0 2.00000002337e-07 1.00000001169e-07 0.0 2.00000002337e-07 1.50000005306e-07 0.0 2.00000002337e-07 2.00000002337e-07 0.0 2.00000002337e-07 2.49999999369e-07 0.0 2.00000002337e-07 3.00000010611e-07 0.0 2.00000002337e-07 3.49999993432e-07 0.0 2.00000002337e-07 4.00000004674e-07 0.0 2.00000002337e-07 4.49999987495e-07 1.24999999684e-07 0.0 -4.49999987495e-07 1.24999999684e-07 0.0 -4.00000004674e-07 1.24999999684e-07 0.0 -3.49999993432e-07 1.24999999684e-07 0.0 -3.00000010611e-07 1.24999999684e-07 0.0 -2.49999999369e-07 1.24999999684e-07 0.0 -2.00000002337e-07 1.24999999684e-07 0.0 -1.50000005306e-07 1.24999999684e-07 0.0 -1.00000001169e-07 1.24999999684e-07 0.0 -5.00000005843e-08 1.24999999684e-07 0.0 -1.35504095737e-18 1.24999999684e-07 0.0 5.00000005843e-08 1.24999999684e-07 0.0 1.00000001169e-07 1.24999999684e-07 0.0 1.50000005306e-07 1.24999999684e-07 0.0 2.00000002337e-07 1.24999999684e-07 0.0 2.49999999369e-07 1.24999999684e-07 0.0 3.00000010611e-07 1.24999999684e-07 0.0 3.49999993432e-07 1.24999999684e-07 0.0 4.00000004674e-07 1.24999999684e-07 0.0 4.49999987495e-07 0.0 -2.00000002337e-07 -4.49999987495e-07 0.0 -2.00000002337e-07 -4.00000004674e-07 0.0 -2.00000002337e-07 -3.49999993432e-07 0.0 -2.00000002337e-07 -3.00000010611e-07 0.0 -2.00000002337e-07 -2.49999999369e-07 0.0 -2.00000002337e-07 -2.00000002337e-07 0.0 -2.00000002337e-07 -1.50000005306e-07 0.0 -2.00000002337e-07 -1.00000001169e-07 0.0 -2.00000002337e-07 -5.00000005843e-08 0.0 -2.00000002337e-07 -1.35504095737e-18 0.0 -2.00000002337e-07 5.00000005843e-08 0.0 -2.00000002337e-07 1.00000001169e-07 0.0 -2.00000002337e-07 1.50000005306e-07 0.0 -2.00000002337e-07 2.00000002337e-07 0.0 -2.00000002337e-07 2.49999999369e-07 0.0 -2.00000002337e-07 3.00000010611e-07 0.0 -2.00000002337e-07 3.49999993432e-07 0.0 -2.00000002337e-07 4.00000004674e-07 0.0 -2.00000002337e-07 4.49999987495e-07 -1.16908189034e-22 -1.91685313884e-21 -5.49999981558e-07 -5.46846701255e-09 5.00337264953e-08 -5.49999981558e-07 5.46846701255e-09 -5.00337264953e-08 -5.49999981558e-07 -6.20321516376e-10 1.05059022815e-07 -5.49999981558e-07 6.20321516376e-10 -1.05059022815e-07 -5.49999981558e-07 -4.08206055624e-08 5.62385409353e-08 -5.49999981558e-07 4.08206055624e-08 -5.62385409353e-08 -5.49999981558e-07 3.79462719025e-08 -1.92274320909e-08 -5.49999981558e-07 -3.79462719025e-08 1.92274320909e-08 -5.49999981558e-07 3.31817453514e-08 7.5731485083e-08 -5.49999981558e-07 -3.31817453514e-08 -7.5731485083e-08 -5.49999981558e-07 -2.9002917401e-08 8.54708019915e-08 -5.49999981558e-07 2.9002917401e-08 -8.54708019915e-08 -5.49999981558e-07 3.53613529569e-08 2.52952752078e-08 -5.49999981558e-07 -3.53613529569e-08 -2.52952752078e-08 -5.49999981558e-07 -1.16908189034e-22 -1.91685313884e-21 5.49999981558e-07 -5.46846701255e-09 5.00337264953e-08 5.49999981558e-07 5.46846701255e-09 -5.00337264953e-08 5.49999981558e-07 -6.20321516376e-10 1.05059022815e-07 5.49999981558e-07 6.20321516376e-10 -1.05059022815e-07 5.49999981558e-07 -4.08206055624e-08 5.62385409353e-08 5.49999981558e-07 4.08206055624e-08 -5.62385409353e-08 5.49999981558e-07 3.79462719025e-08 -1.92274320909e-08 5.49999981558e-07 -3.79462719025e-08 1.92274320909e-08 5.49999981558e-07 3.31817453514e-08 7.5731485083e-08 5.49999981558e-07 -3.31817453514e-08 -7.5731485083e-08 5.49999981558e-07 -2.9002917401e-08 8.54708019915e-08 5.49999981558e-07 2.9002917401e-08 -8.54708019915e-08 5.49999981558e-07 3.53613529569e-08 2.52952752078e-08 5.49999981558e-07 -3.53613529569e-08 -2.52952752078e-08 5.49999981558e-07 -8.24717787395e-08 1.50292777334e-07 -2.63718874294e-07 -7.75635129457e-08 1.56840002319e-07 -2.10379283772e-07 -7.92520324921e-08 1.5466395098e-07 -1.50828100232e-07 -7.45080441789e-08 1.60587333653e-07 -8.89702960194e-08 -7.03929501356e-08 1.65271814012e-07 -3.83416221439e-07 -8.08624704973e-08 1.52515013951e-07 -3.58615288576e-08 -8.19417280695e-08 1.51033162865e-07 2.20169596332e-07 -8.24408914468e-08 1.50336148863e-07 2.72938677881e-07 -7.
[...]
      <CellData>
        <DataArray Name="rho_e_real" format="ascii" type="Float32">-60.5787635641 60.7965711035 -59.9088856467 60.1251684499 26.0031787731 -25.7800700969 21.4185061959 -21.2277455203 46.0132421455 39.5690225769 -45.7906647723 -39.373490826 44.7490635218 38.1244941673 -44.5208023889 -37.9279883926 -26.3423332877 -16.8080988284 -23.2089463791 26.5366022324 16.9992394506 23.3963064218 -27.6792508563 27.9027363665 7.53634512661 12.1177553097 5.48133176028 11.1267859558 -7.31861480405 -11.9173166553 -5.28971538617 -10.9349704378 12.886701686 14.7663302422 -12.6950250404 -14.5653579885 7.82947370802 0.918152126801 5.86147373324 0.821576069063 -7.61299631553 -0.71419452637 -5.66400166595 -0.627007380346 60.6803354613 -60.5018269374 60.0415117684 -59.8539443712 -25.801661483 26.0025926919 -21.1866653103 21.3474295343 -45.7744777339 -39.3434654943 45.9761335474 39.5162535884 -44.4317974593 -37.8615147541 44.6132643674 38.0211580466 26.5245913538 16.974088349 23.3482455637 -26.3500897381 -16.8067255942 -23.1862690397 27.7752207095 -27.5959456359 -7.3798180663 -11.9530809648 -5.30267996754 -10.9485234268 7.56921575409 12.1297311177 5.46742871905 11.1152440647 -12.6565596357 -14.5006040422 12.8173500937 14.6647588129 -7.5477923827 -0.675715948328 -5.64976112286 -0.613574472541 7.72831770784 0.849595065354 5.81778068084 0.77953891726 79.8796743906 -79.8227099242 68.46530256 57.8177459304 -69.0812958691 -56.6335498561 -39.5341469429 -11.4323076873 118.346686566 -118.183929033 -1.01533349295 -9.28971279111 46.0035854971 -43.6725745882 -68.5279389795 68.8297528921 -123.499050841 -104.765193739 -121.006642036 123.769719679 104.966441634 121.311345208 11.7060344373 -42.1235016495 42.3981088284 -2.41043827379 -14.9648771122 -8.34443024869 15.0790152624 8.20360374656 -92.2256327758 -70.7700811006 92.5389174202 71.0276093646 -50.8519552064 -44.4949411447 48.2691387574 40.68501723 -51.9979012587 52.2700838943 97.9271507439 90.8844777145 -97.6347761742 -90.7004373697 55.2336081779 39.1009787347 -54.3749803621 -34.147455164 29.8397282941 -29.7624946532 30.8085010629 23.9376214841 -35.0084405696 -18.4622457736 -23.7203246955 -15.1535348292 -11.6154893852 -3.20294891269 -2.3330076461 -2.27396216295 0.557959256795 -48.7015240113 -55.3065109014 47.879176517 54.5058018914 11.1690372034 10.3735107345 -5.20796504678 -3.53394053115 -3.88445978866 -1.1119746418 -2.1343965217 -2.1403834306 -4.90246926454 -3.13315082718 -11.5599460381 -88.0488751878 -105.133063306 -72.3906076754 88.6854227166 105.274265015 72.8354546373 7.11031113968 4.27463311823 -94.4310789358 -103.098032949 -105.742511349 94.5641279702 103.185155773 105.917082992 3.51499670722 20.4110029046 24.4861305201 -25.2388630554 -27.0142949953 -4.58363123393 -4.68353502204 -125.77301226 -116.990415997 -125.969176587 125.936324674 117.160154641 126.141250555 69.5413151051 76.5539218527 67.5574699173 -69.2164445753 -76.3018534932 -67.2193066759 -6.13612999157 6.48106116951 -92.7613456806 -82.5385329258 -58.2150978031 -72.6703650528 92.9387373155 82.6052137916 57.8078561226 69.3870048677 -1.31729616397 -4.32648716604 -7.05319171526 -7.23496351072 -11.8816432547 -16.4402957301 20.2885344542 9.01214850522 13.5681955206 -0.146121789934 -1.09555490818 4.43852467186 1.77530925778 -1.50422772601 -2.17560409932 -2.56836630546 1.43146594521 1.29425530228 -32.5782697791 -33.334633879 -23.0227348666 -22.3301810457 35.7636094456 35.2841735725 24.0355186791 53.7482065582 48.1029729582 -53.1003010634 -48.5561766526 42.7003476641 -16.1289854779 -32.5821851592 32.7750957336 -33.8134197597 -4.52459170373 -3.30739315611 -0.781651691983 60.0664215487 42.3368656735 1.24786666528 -142.490725165 -133.536534684 142.730145711 133.737677125 5.53843026651 -63.7674575515 -48.509189295 27.2635949764 35.583775718 5.33049624814 3.48303601521 1.51129135307 2.21645900449 2.87708067792 1.89899774605 -5.43194129188 -4.65209777239 -2.36986913144 6.67128427276 4.45511048995 5.56511646699 17.5045988748 19.6039590357 -4.35745915469 34.1092526258 21.0781667173 2.34107480874 4.74416662327 3.84228567134 -5.13247382711 -6.17050499013 3.14894661894 6.41278526552 7.55341117135 13.195350166 25.9163712574 26.6418101148 12.0785214481 -28.3129326209 -14.1065495229 -13.0668855275 -21.8065591741 -11.3698844588 6.54670031605 12.2976952528 -7.90480820627 -11.894273112 8.33433176108 2.36341631291 -3.21473660641 -26.3110957699 -11.8033683246 -33.0292670412 -6.88721736422 -5.87815346648 2.22731521183 1.8403850715 4.95175370022 2.04376517384 -1.21706718597 3.87615057193 4.70326918653 1.03637049976 5.30381415028 0.275204123051 -1.61741379407 0.368685104172 0.508652958574 -0.171835032902 0.883043773759 -0.516727110422 -1.84149034216 -0.385219028145 -1.19692338432 -2.91966589433 -1.16758938727 -1.20027250273 -0.594778796525 -0.195322820209 -0.868556653515 -0.038270563601 -0.813806088991 0.679353036027 0.143059227537 4.04794245822 0.994486449693 2.14773026419 0.579166201209 0.998436580526 0.497979330908 1.72876497027 2.10756546313 -0.0454894561026 79.7087803671 -79.6174697714 68.3292670765 57.6386439561 -68.8200827745 -56.3589039168 -19.5943213374 -41.4745862194 2.35240507409 -11.2072347697 -8.65557429515 118.342930428 -118.131664019 -1.01577266669 -9.1713367641 45.9254773447 -43.3519568284 -68.3091710037 68.3584357666 -123.472486587 -104.665531228 -120.951918846 123.539007842 104.730831349 121.03624419 10.3563999171 -41.9143466032 41.9917386583 -14.7741211848 -8.13241596818 14.7220041274 7.89751358754 -92.0854711589 -70.6048555649 92.1465244282 70.6173127621 -50.0270760195 -44.2060224418 44.7257095243 40.4316113841 33.3939669124 -51.7781752738 51.8489968888 97.5960683983 90.6073281478 -97.5509915675 -90.5808250086 55.2536562507 40.0721865379 -54.0379602969 -33.8183860367 29.4931212875 -29.5536318974 29.2764084072 17.6860639613 22.1878524789 -34.5755234281 -18.0900595998 -23.3842795155 -3.04648143135 -2.47207542405 -15.2429896075 -11.2939834435 1.872737179 -0.891284736903 -48.4306674453 -55.0862253754 47.669061863 54.2622007592 -6.55036696025 7.8025759565 9.72817710661 -1.14376283458 1.09063223231 4.18017189599 6.18304873012 7.36987742635 -0.372494620291 2.22123806464 2.46828050901 1.65689533751 -2.72033810829 -11.2009212775 2.86297534802 12.2030848367 -1.20479799966 2.060703536 -87.9625796517 -105.011913417 -72.1000617473 88.0594227405 105.328570824 69.945241529 -94.2743414797 -102.949647562 -105.652392775 94.4210038491 103.117915756 105.74128006 -27.3582694766 -26.589537925 -3.97285193879 -125.739912504 -116.918192309 -125.920784925 125.895655467 117.095938158 126.046964391 69.3160311702 76.255310921 67.2276293568 -69.0218751567 -76.1463057283 -67.0508785546 -5.75491721745 6.11602715299 8.01665865538 17.7370468717 -92.5714820044 -82.2775459103 -57.9699803354 -72.3008966467 92.9467812429 82.4998640411 58.6516263581 73.1806056905 -0.820820472266 -3.88603479274 -6.62654484719 -6.85712403869 -11.5064529977 -16.0445484925 -0.787624164976 -2.59862913261 0.503107636258 4.60519102876 -2.18065503418 -3.62468910943 -32.2456358542 -32.9611819231 -22.6613943977 -21.9701101669 35.71147792 34.5329643874 23.8650824702 53.3918607431 47.8093556062 -52.915544461 -48.3452724942 -23.9587268086 -34.4950519917 32.4290883449 -33.6025878232 39.5836214492 64.6674231737 45.0835169609 -142.470516314 -133.536064093 142.617370956 133.656648502 2.57591329747 6.00244730033 -62.9106720749 -49.3969855451 27.0101578038 35.349002016 0.677248876628 7.03362162258 5.01508747709 -5.12641775065 -3.8129570392 -2.07567188218 20.3816913776 20.8736183507 15.3783649842 1.55477613239 2.3867692605 7.41421372219 12.884749304 25.6888445712 26.3782749803 11.8347367984 -0.753552333049 -5.47382439861 -28.0605586137 14.1710577439 14.6322760857 11.4633766802 20.9698634551 -5.77050011578 6.30912191121 12.0121429518 -7.62304326004 -11.6553365892 -6.87445821882 -4.41212566205 -2.65656653678 1.73449205985 -25.9902119247 -11.4707234345 -32.7613991266 -6.56300126794 4.62995773935 2.30093395323 2.10307779061 0.79820487779 0.0810279689322 -6.13206347756 -3.89154694136 -2.74983553731 -6.31550281104 -0.487137012088 -0.943420011461 -1.49722113549 -0.405838833164 4.11753546663 1.04671724532 8.58416673071 3.16685401705 -1.16920701153 0.724838618869 -1.62034178681 -0.395757490313 -0.00925244432867 0.860790966164 0.524850138298 -2.75270836101 0.419178720123 -2.95887242515 -3.1836757428 -2.60588435624 -0.699646693773 -3.22916280997 5.19656637872 4.41304933495 2.118860315 3.11369400044 0.777524498038 1.1223101794 1.78154710387 1.0011918675 2.49099421644 2.69529804598 2.40557558187 3.63216416988 1.51658599083 -0.535764415214 -1.12851220222 0.773224337278 0.479747757832 -1.2343447332 3.22125836721 3.65354084203 2.63863800007 -79.8091868387 79.8499437362 -68.3890842222 -57.7293029864 69.0834695831 56.6380937074 19.7910571221 41.6600685211 -2.39562181308 11.5153529388 8.85463392622 -118.326544332 118.16298422 1.093407279 9.42249954546 -45.957353184 43.6544114802 68.6880119606 -68.62447248 123.626255655 104.845777649 121.157699802 -123.599694464 -104.838554999 -121.115829684 -10.5978453323 42.2554355353 -42.2329988516 15.0783232574 8.41745636169 -14.9307358236 -8.10135784048 92.3804983572 70.8998722978 -92.3350965172 -70.8501673732 50.2514042991 44.5020423406 -44.6364673913 -40.3862066126 -33.0826770155 52.1149521433 -52.1129172823 -97.7437716887 -90.7401488501 97.7684153003 90.7952988551 -55.2716962251 -40.0437882843 54.3383748135 34.1123240849 -29.7184105544 29.8536232933 -29.2101134699 -17.6501161183 -22.1357741587 34.889957861 18.4406338134 23.7088412943 3.04219629447 2.523732899 15.5380232828 11.6174519157 -1.83296150159 1.1212632967 48.7281633924 55.3597462433 -47.7722028812 -54.4149623857 6.6039895851 -7.73264185573 -9.66998569633 1.23025794783 -1.03669438172 -4.13559963432 -6.1318264833 -7.33067273979 0.444510393581 -2.16045772052 -2.4080156908 -1.58684312836 3.10722008478 11.555715605 -2.85319694957 -12.1573690304 1.22130242975 -1.99170132815 87.9997797654 105.094710787 72.1878950822 -87.7934010182 -105.406639978 -70.0233507888 94.4639005011 103.103151886 105.805792382 -94.492500493 -103.14795718 -105.808807901 27.5821294266 26.8872022014 3.95972980492 125.806750698 117.003804602 126.027834212 -125.868069925 -117.105114237 -126.054670916 -69.4401544352 -76.4245259495 -67.4141082398 69.2663629603 76.3784294518 67.315062919 6.12280373259 -6.16468317143 -8.02129210955 -17.7519917832 92.7418290763 82.5007659482 58.194077512 72.5065529728 -92.958004413 -82.5439145153 -58.6219172398 -73.1300190834 1.19027757731 4.25896239517 6.99641535271 7.22699052137 11.8800853842 16.4133842289 0.739770515626 2.59181895008 -0.480472969712 -4.78907674842 2.37845124797 3.76083841893 32.5803018749 33.3013422888 23.0184903334 22.3097373561 -35.7754960508 -34.5268814014 -23.8545915017 -53.6152601598 -47.9888308818 53.1951602025 48.6228294165 24.0024409496 34.1701394441 -32.6282756708 33.891907959 -39.4185040705 -63.0535282755 -44.6483022966 142.611052094 133.628025426 -142.572230624 -133.609331308 -2.55898566925 -6.25251566947 62.8740778732 49.448105338 -27.0862546386 -35.4838912606 -0.410637161255 -7.39961940502 -5.09389439197 5.44226715915 4.14225790392 2.35384351086 -20.283434731 -20.7576660546 -15.2872637173 -1.48110903931 -2.33669467403 -7.53042573472 -12.9807534207 -25.8301674253 -26.5630204466 -11.994228778 0.734881122152 5.51667817259 28.355344316 -14.1150494229 -14.5294149691 -11.3934478781 -20.9052040608 6.29833133453 -6.49021137613 -12.2042981611 7.93666609325 11.9504731315 6.8270387928 4.48610694901 2.54158558468 -2.00320577646 26.3206250458 11.8180051176 33.0651832324 6.89954536158 -4.59532712968 -2.2615433412 -2.16370889117 -0.661564259979 0.00541739374492 5.67381806856 3.70970653916 2.67252241176 5.73826849414 0.592811802727 1.05316620225 1.57118732463 0.488311289309 -3.93416997451 -0.947461220342 -8.62968454594 -2.97376120319 1.24667400594 -0.657979586529 1.6959334826 0.509254361872 0.116768555766 -0.723832972702 -0.382216035606 2.86447503735 -0.328305625818 3.01980362154 3.22573715901 2.686275333 0.755829548711 3.29852668349 -5.14133255121 -4.33269611575 -1.95355505009 -2.94923693825 -0.573177296977 -0.911851295867 -1.55685665501 -0.783663222841 -2.40462920146 -2.55000799975 -2.2794107491 -3.52907696907 -1.25607336732 0.839574984977 1.4534104225 -0.478702709818 -0.146941452164 1.57735599182 -3.26045157074 -3.75855294998 -2.67202077989 -79.7205296472 79.5951663169 -68.3448847 -57.6667131011 68.7942338689 56.334308093 19.4933466195 41.3891615241 -2.49783356601 11.4130548683 8.55010769273 -118.332837457 118.113499959 0.778827597914 9.04460985103 -45.9579660929 43.3334407397 68.3538393775 -68.2738070356 123.494175912 104.683992335 120.99397971 -123.483563748 -104.6966083 -120.952335689 -10.6666067785 41.9721412328 -41.9029999205 14.8502918829 8.20155339045 -14.6158799611 -7.80966589547 92.1189181365 70.6239130211 -92.0732363992 -70.5699496271 49.9736647175 44.1384288397 -44.7054909878 -40.4835410868 -33.1383543138 51.8157497893 -51.7875081616 -97.5476029525 -90.5841303338 97.5687275172 90.5776586483 -55.2890323297 -40.1140836394 53.9966359083 33.783547123 -29.4241948429 29.6045753437 -29.3393071996 -17.7889693683 -22.2692044233 34.5233875249 18.0442303837 23.3317482726 2.76182274067 2.19354850762 15.1641558464 11.2148082922 -2.15685086471 0.764829500437 48.4242858743 55.0739623129 -47.6832215362 -54.2699580061 6.29245695397 -7.92415408284 -9.87888611182 0.992817541281 -1.10454849853 -4.20489578914 -6.32302633456 -7.47273618531 0.333060559962 -2.25443814311 -2.65929428462 -1.81293566899 2.71152624124 11.1567494592 -2.72016302113 -12.2728019648 0.970525566006 -2.22878059352 87.9189106537 104.981072343 72.0502448802 -87.8260797803 -105.376296914 -70.0309638117 94.2652104686 102.934289671 105.646674642 -94.4133978568 -103.111531151 -105.729437808 27.2907294392 26.5116715505 3.65787165408 125.757602802 116.912948576 125.947969615 -125.857617239 -117.067289609 -125.995107805 -69.3141271383 -76.2465367992 -67.1987118038 69.0149739902 76.1418970529 67.0597944914 5.75961915896 -6.10140282201 -8.02272050557 -17.7977540267 92.53320227 82.2510658624 57.9377571268 72.2382676036 -92.9428992395 -82.5120036787 -58.6443482682 -73.1740014391 0.814473969013 3.84645812438 6.59733364654 6.83539247274 11.4866349654 16.020595409 0.468080653988 2.27178201571 -0.820671712431 -4.92669827324 2.22840839145 3.44891477464 32.2194923619 32.9252806981 22.6227468185 21.9621015184 -35.7586034859 -34.5942330862 -23.9137345214 -53.3653740834 -47.789749605 52.9240679483 48.359213207 23.8508951387 34.0791657606 -32.3996744541 33.618457446 -39.5387291526 -63.1026259856 -44.672260093 142.543978326 133.585773244 -142.504770127 -133.581385935 -2.67309128993 -6.3608626061 62.7864710308 49.3018411831 -27.0346364579 -35.3679079445 -0.774265396539 -7.53942564727 -5.39871714112 5.05751912819 3.74779879838 1.94950120206 -20.4061050047 -20.8065863742 -15.4496712211 -1.73684361908 -2.59415464668 -7.40522349821 -12.9119693938 -25.6814254647 -26.3537073551 -11.8219738089 0.552880418629 5.23881735297 28.0830983191 -14.3066649721 -14.7242824952 -11.5873243792 -21.0847043627 6.21172922951 -6.26375685416 -11.9633013226 7.65505027457 11.6844273551 6.59894942165 4.27235616416 2.45838330724 -2.06641472463 25.993321139 11.4667053377 32.7536506058 6.58026706968 -4.82520595383 -2.43609678222 -2.35167705524 -0.973567057322 -0.294225443919 5.59270549304 3.50432977411 2.44241545272 5.64561392718 0.306487091375 0.763741129946 1.30855173385 0.221455139262 -4.24262147952 -1.2503776315 -8.90647403737 -3.33093612775 1.04742173907 -0.895452303897 1.44325213491 0.262634489442 -0.141843842666 -0.984546547247 -0.611426356108 2.78366858098 -0.434931371783 2.73132892786 2.93100443426 2.36983427184 0.464749277229 3.02601151729 -5.49121832036 -4.68560743308 -2.32301857394 -3.31917714087 -0.860402751599 -1.19799735512 -1.89110240546 -1.02466365653 -2.72528195921 -2.90629429131 -2.60021672107 -3.85520715243 -1.59670179392 0.452747502476 1.09109139636 -0.853000899357 -0.291975924311 1.250864395 -3.51647025294 -4.03921750231 -2.96236782554 70.0491996758 33.9970538382 61.2589504639 56.2164452992 105.478526025 90.802137747 125.11559231 100.869650592 106.814816581 143.71862004 165.993876515 143.063106751 150.678043091 88.2150020852 64.4007613788 13.4738932678 2.73536979685 16.873070538 5.63195382151 19.6773552841 30.104115941 30.3618307059 37.807319091 42.8163326811 69.6186003742 33.1624124477 60.224057794 55.7214068722 105.265926894 90.3505854946 124.924837794 100.975849275 106.796929848 143.555934382 165.893020696 142.872781743 150.590550745 88.0261422244 64.9404534886 13.4001497163 2.89725620837 16.530103132 5.43212170034 19.5745049106 30.2285769774 30.0800474685 37.4246302608 42.5431992777 -69.8171114772 -33.7400498156 -60.9841191723 -55.9573632992 -105.228163028 -90.5266850976 -124.87540387 -100.608800382 -106.544096515 -143.434968637 -165.730146501 -142.794733484 -150.467363874 -87.959907163 -64.1408556507 -13.215271983 -2.47320106525 -16.6565158845 -5.40950824038 -19.4104325608 -29.8480269159 -30.0774537463 -37.575056022 -42.5834702432 -69.4842914867 -32.9288210482 -59.9779485394 -55.5504101063 -105.142581605 -90.1971445817 -124.78334533 -100.747833725 -106.595492209 -143.299752748 -165.685009418 -142.697552868 -150.426297043 -87.8091654326 -64.7177492498 -13.151255119 -2.65388173439 -16.3528427015 -5.23931682236 -19.3088784663 -29.9671445083 -29.8397118615 -37.2587241748 -42.3528717156 -69.739565046 -33.7341265238 -55.8769669037 -60.9590727199 -90.4065547902 -105.107017118 -124.76116851 -100.520131738 -106.442079577 -143.325308093 -165.616036354 -142.667501138 -150.376261997 -87.8970678119 -64.0875137366 -13.2597211831 -2.51365596757 -16.5522239995 -5.35882228882 -19.4220284471 -29.8808824519 -30.0370881377 -37.5379514989 -42.5431260304 -69.4898340295 -32.8697268729 -55.554719164 -59.9190952219 -90.1932868427 -105.142290082 -124.770321736 -100.681158071 -106.545141882 -143.216320022 -165.626151697 -142.666579081 -150.38358697 -87.7562799521 -64.6606892058 -13.0996850037 -2.61641363763 -16.3578519486 -5.27434021704 -19.3130190298 -29.9054297519 -29.8281181698 -37.3257048176 -42.365402509 69.9378500525 33.9654919082 56.1010433113 61.2075896884 90.6460854829 105.32149423 124.963033695 100.74455205 106.681703643 143.559442425 165.826806313 142.893007975 150.543424043 88.1261490373 64.3218051448 13.4844145702 2.74122661681 16.7295501026 5.54535228668 19.6402946489 30.1043779236 30.2847588749 37.7265169989 42.7328744027 69.5654460434 33.0511670705 55.6700247899 60.1022720809 90.2828753306 105.20018582 124.849426535 100.858083403 106.682189324 143.412084044 165.77752234 142.77754384 150.494187058 87.9104989146 64.827572807 13.3050416495 2.81170309688 16.4863596307 5.41755917447 19.5321233199 30.1160900022 30.0113646461 37.4401641889 42.5078619031</DataArray>