<?xml version="1.0" ?>
<VTKFile byte_order="LittleEndian" type="PolyData" version="0.1">
  <PolyData>
    <Piece NumberOfPoints="460" NumberOfPolys="916">
      <Points>
        <DataArray NumberOfComponents="3" format="ascii" type="Float32">0.0 0.0 -1.10000001996e-07 1.92000001675e-07 0.0 -1.10000001996e-07 2.41999998707e-07 0.0 -5.9999997859e-08 2.41999998707e-07 0.0 5.9999997859e-08 1.92000001675e-07 0.0 1.10000001996e-07 1.70999996385e-07 0.0 1.10000001996e-07 1.20999999353e-07 0.0 5.9999997859e-08 1.20999999353e-07 0.0 5.00000005843e-08 7.10000023219e-08 0.0 0.0 0.0 0.0 0.0 1.175622131e-23 1.92000001675e-07 -1.10000001996e-07 -1.92000001675e-07 2.35124426199e-23 -1.10000001996e-07 -3.52686615633e-23 -1.92000001675e-07 -1.10000001996e-07 1.48177376295e-23 2.41999998707e-07 -5.9999997859e-08 -2.41999998707e-07 2.96354752589e-23 -5.9999997859e-08 -4.44532113106e-23 -2.41999998707e-07 -5.9999997859e-08 1.48177376295e-23 2.41999998707e-07 5.9999997859e-08 -2.41999998707e-07 2.96354752589e-23 5.9999997859e-08 -4.44532113106e-23 -2.41999998707e-07 5.9999997859e-08 1.175622131e-23 1.92000001675e-07 1.10000001996e-07 -1.92000001675e-07 2.35124426199e-23 1.10000001996e-07 -3.52686615633e-23 -1.92000001675e-07 1.10000001996e-07 1.04703843453e-23 1.70999996385e-07 1.10000001996e-07 -1.70999996385e-07 2.09407686907e-23 1.10000001996e-07 -3.14111538249e-23 -1.70999996385e-07 1.10000001996e-07 7.40886881473e-24 1.20999999353e-07 5.9999997859e-08 -1.20999999353e-07 1.48177376295e-23 5.9999997859e-08 -2.22266056553e-23 -1.20999999353e-07 5.9999997859e-08 7.40886881473e-24 1.20999999353e-07 5.00000005843e-08 -1.20999999353e-07 1.48177376295e-23 5.00000005843e-08 -2.22266056553e-23 -1.20999999353e-07 5.00000005843e-08 4.34735249524e-24 7.10000023219e-08 0.0 -7.10000023219e-08 8.69470499049e-24 0.0 -1.30420574857e-23 -7.10000023219e-08 0.0 4.80000004188e-08 0.0 -1.10000001996e-07 9.60000008376e-08 0.0 -1.10000001996e-07 1.43999997704e-07 0.0 -1.10000001996e-07 2.27355343441e-07 0.0 -9.53553396243e-08 2.41999998707e-07 0.0 -1.99999998785e-08 2.41999998707e-07 0.0 1.99999998785e-08 2.27355343441e-07 0.0 9.53553396243e-08 1.3564465462e-07 0.0 9.53553396243e-08 1.06355336982e-07 0.0 1.46446605953e-08 3.55000011609e-08 0.0 0.0 2.93905532749e-24 4.80000004188e-08 -1.10000001996e-07 5.87811065499e-24 9.60000008376e-08 -1.10000001996e-07 8.81716539083e-24 1.43999997704e-07 -1.10000001996e-07 1.87186159906e-07 4.27240181011e-08 -1.10000001996e-07 1.72986020175e-07 8.33056787997e-08 -1.10000001996e-07 1.5011164578e-07 1.19710037438e-07 -1.10000001996e-07 1.19710037438e-07 1.5011164578e-07 -1.10000001996e-07 8.33056787997e-08 1.72986020175e-07 -1.10000001996e-07 4.27240181011e-08 1.87186159906e-07 -1.10000001996e-07 -4.80000004188e-08 5.87811065499e-24 -1.10000001996e-07 -9.60000008376e-08 1.175622131e-23 -1.10000001996e-07 -1.43999997704e-07 1.76343307817e-23 -1.10000001996e-07 -4.27240181011e-08 1.87186159906e-07 -1.10000001996e-07 -8.33056787997e-08 1.72986020175e-07 -1.10000001996e-07 -1.19710037438e-07 1.5011164578e-07 -1.10000001996e-07 -1.5011164578e-07 1.19710037438e-07 -1.10000001996e-07 -1.72986020175e-07 8.33056787997e-08 -1.10000001996e-07 -1.87186159906e-07 4.27240181011e-08 -1.10000001996e-07 -8.81716539083e-24 -4.80000004188e-08 -1.10000001996e-07 -1.76343307817e-23 -9.60000008376e-08 -1.10000001996e-07 -2.64514969614e-23 -1.43999997704e-07 -1.10000001996e-07 -1.87186159906e-07 -4.27240181011e-08 -1.10000001996e-07 -1.72986020175e-07 -8.33056787997e-08 -1.10000001996e-07 -1.5011164578e-07 -1.19710037438e-07 -1.10000001996e-07 -1.19710037438e-07 -1.5011164578e-07 -1.10000001996e-07 -8.33056787997e-08 -1.72986020175e-07 -1.10000001996e-07 -4.27240181011e-08 -1.87186159906e-07 -1.10000001996e-07 4.27240181011e-08 -1.87186159906e-07 -1.10000001996e-07 8.33056787997e-08 -1.72986020175e-07 -1.10000001996e-07 1.19710037438e-07 -1.5011164578e-07 -1.10000001996e-07 1.5011164578e-07 -1.19710037438e-07 -1.10000001996e-07 1.72986020175e-07 -8.33056787997e-08 -1.10000001996e-07 1.87186159906e-07 -4.27240181011e-08 -1.10000001996e-07 1.39210394385e-23 2.27355343441e-07 -9.53553396243e-08 2.37350036514e-07 4.72118593109e-08 -5.9999997859e-08 2.23578851433e-07 9.26093903786e-08 -5.9999997859e-08 2.01215641482e-07 1.34448001177e-07 -5.9999997859e-08 1.71119836523e-07 1.71119836523e-07 -5.9999997859e-08 1.34448001177e-07 2.01215641482e-07 -5.9999997859e-08 9.26093903786e-08 2.23578851433e-07 -5.9999997859e-08 4.72118593109e-08 2.37350036514e-07 -5.9999997859e-08 -2.27355343441e-07 2.7842078877e-23 -9.53553396243e-08 -4.72118593109e-08 2.37350036514e-07 -5.9999997859e-08 -9.26093903786e-08 2.23578851433e-07 -5.9999997859e-08 -1.34448001177e-07 2.01215641482e-07 -5.9999997859e-08 -1.71119836523e-07 1.71119836523e-07 -5.9999997859e-08 -2.01215641482e-07 1.34448001177e-07 -5.9999997859e-08 -2.23578851433e-07 9.26093903786e-08 -5.9999997859e-08 -2.37350036514e-07 4.72118593109e-08 -5.9999997859e-08 -4.17631198932e-23 -2.27355343441e-07 -9.53553396243e-08 -2.37350036514e-07 -4.72118593109e-08 -5.9999997859e-08 -2.23578851433e-07 -9.26093903786e-08 -5.9999997859e-08 -2.01215641482e-07 -1.34448001177e-07 -5.9999997859e-08 -1.71119836523e-07 -1.71119836523e-07 -5.9999997859e-08 -1.34448001177e-07 -2.01215641482e-07 -5.9999997859e-08 -9.26093903786e-08 -2.23578851433e-07 -5.9999997859e-08 -4.72118593109e-08 -2.37350036514e-07 -5.9999997859e-08 4.72118593109e-08 -2.37350036514e-07 -5.9999997859e-08 9.26093903786e-08 -2.23578851433e-07 -5.9999997859e-08 1.34448001177e-07 -2.01215641482e-07 -5.9999997859e-08 1.71119836523e-07 -1.71119836523e-07 -5.9999997859e-08 2.01215641482e-07 -1.34448001177e-07 -5.9999997859e-08 2.23578851433e-07 -9.26093903786e-08 -5.9999997859e-08 2.37350036514e-07 -4.72118593109e-08 -5.9999997859e-08 1.48177376295e-23 2.41999998707e-07 -1.99999998785e-08 1.48177376295e-23 2.41999998707e-07 1.99999998785e-08 2.37350036514e-07 4.72118593109e-08 5.9999997859e-08 2.23578851433e-07 9.26093903786e-08 5.9999997859e-08 2.01215641482e-07 1.34448001177e-07 5.9999997859e-08 1.71119836523e-07 1.71119836523e-07 5.9999997859e-08 1.34448001177e-07 2.01215641482e-07 5.9999997859e-08 9.26093903786e-08 2.23578851433e-07 5.9999997859e-08 4.72118593109e-08 2.37350036514e-07 5.9999997859e-08 -2.41999998707e-07 2.96354752589e-23 -1.99999998785e-08 -2.41999998707e-07 2.96354752589e-23 1.99999998785e-08 -4.72118593109e-08 2.37350036514e-07 5.9999997859e-08 -9.26093903786e-08 2.23578851433e-07 5.9999997859e-08 -1.34448001177e-07 2.01215641482e-07 5.9999997859e-08 -1.71119836523e-07 1.71119836523e-07 5.9999997859e-08 -2.01215641482e-07 1.34448001177e-07 5.9999997859e-08 -2.23578851433e-07 9.26093903786e-08 5.9999997859e-08 -2.37350036514e-07 4.72118593109e-08 5.9999997859e-08 -4.44532113106e-23 -2.41999998707e-07 -1.99999998785e-08 -4.44532113106e-23 -2.41999998707e-07 1.99999998785e-08 -2.37350036514e-07 -4.72118593109e-08 5.9999997859e-08 -2.23578851433e-07 -9.26093903786e-08 5.9999997859e-08 -2.01215641482e-07 -1.34448001177e-07 5.9999997859e-08 -1.71119836523e-07 -1.71119836523e-07 5.9999997859e-08 -1.34448001177e-07 -2.01215641482e-07 5.9999997859e-08 -9.26093903786e-08 -2.23578851433e-07 5.9999997859e-08 -4.72118593109e-08 -2.37350036514e-07 5.9999997859e-08 4.72118593109e-08 -2.37350036514e-07 5.9999997859e-08 9.26093903786e-08 -2.23578851433e-07 5.9999997859e-08 1.34448001177e-07 -2.01215641482e-07 5.9999997859e-08 1.71119836523e-07 -1.71119836523e-07 5.9999997859e-08 2.01215641482e-07 -1.34448001177e-07 5.9999997859e-08 2.23578851433e-07 -9.26093903786e-08 5.9999997859e-08 2.37350036514e-07 -4.72118593109e-08 5.9999997859e-08 1.39210394385e-23 2.27355343441e-07 9.53553396243e-08 1.87186159906e-07 4.27240181011e-08 1.10000001996e-07 1.72986020175e-07 8.33056787997e-08 1.10000001996e-07 1.5011164578e-07 1.19710037438e-07 1.10000001996e-07 1.19710037438e-07 1.5011164578e-07 1.10000001996e-07 8.33056787997e-08 1.72986020175e-07 1.10000001996e-07 4.27240181011e-08 1.87186159906e-07 1.10000001996e-07 -2.27355343441e-07 2.7842078877e-23 9.53553396243e-08 -4.27240181011e-08 1.87186159906e-07 1.10000001996e-07 -8.33056787997e-08 1.72986020175e-07 1.10000001996e-07 -1.19710037438e-07 1.5011164578e-07 1.10000001996e-07 -1.5011164578e-07 1.19710037438e-07 1.10000001996e-07 -1.72986020175e-07 8.33056787997e-08 1.10000001996e-07 -1.87186159906e-07 4.27240181011e-08 1.10000001996e-07 -4.17631198932e-23 -2.27355343441e-07 9.53553396243e-08 -1.87186159906e-07 -4.27240181011e-08 1.10000001996e-07 -1.72986020175e-07 -8.33056787997e-08 1.10000001996e-07 -1.5011164578e-07 -1.19710037438e-07 1.10000001996e-07 -1.19710037438e-07 -1.5011164578e-07 1.10000001996e-07 -8.33056787997e-08 -1.72986020175e-07 1.10000001996e-07 -4.27240181011e-08 -1.87186159906e-07 1.10000001996e-07 4.27240181011e-08 -1.87186159906e-07 1.10000001996e-07 8.33056787997e-08 -1.72986020175e-07 1.10000001996e-07 1.19710037438e-07 -1.5011164578e-07 1.10000001996e-07 1.5011164578e-07 -1.19710037438e-07 1.10000001996e-07 1.72986020175e-07 -8.33056787997e-08 1.10000001996e-07 1.87186159906e-07 -4.27240181011e-08 1.10000001996e-07 1.65173318578e-07 4.42580549986e-08 1.10000001996e-07 1.48090350649e-07 8.54999981925e-08 1.10000001996e-07 1.20915260027e-07 1.20915260027e-07 1.10000001996e-07 8.54999981925e-08 1.48090350649e-07 1.10000001996e-07 4.42580549986e-08 1.65173318578e-07 1.10000001996e-07 -4.42580549986e-08 1.65173318578e-07 1.10000001996e-07 -8.54999981925e-08 1.48090350649e-07 1.10000001996e-07 -1.20915260027e-07 1.20915260027e-07 1.10000001996e-07 -1.48090350649e-07 8.54999981925e-08 1.10000001996e-07 -1.65173318578e-07 4.42580549986e-08 1.10000001996e-07 -1.65173318578e-07 -4.42580549986e-08 1.10000001996e-07 -1.48090350649e-07 -8.54999981925e-08 1.10000001996e-07 -1.20915260027e-07 -1.20915260027e-07 1.10000001996e-07 -8.54999981925e-08 -1.48090350649e-07 1.10000001996e-07 -4.42580549986e-08 -1.65173318578e-07 1.10000001996e-07 4.42580549986e-08 -1.65173318578e-07 1.10000001996e-07 8.54999
[...]
      <CellData>
        <DataArray Name="rho_e_real" format="ascii" type="Float32">-182944.946183 -138310.756995 -156716.560861 -157594.596245 -163120.213429 -125292.175227 -109541.789285 -24787.4680164 -109893.757028 -239598.402397 -210991.265197 -154616.819629 -225659.61053 -229442.367668 -212085.466644 -183795.775398 -45519.2331403 -10927.2253016 -179760.327514 -180895.036047 -187924.110475 -212683.960173 -203974.825855 -86063.5891427 -69204.9052409 -75845.9909425 -41690.837222 -143023.938555 -36953.8401916 -74079.6154527 -141979.364542 -176643.481251 -146911.181172 -62983.1959778 -109037.942772 140219.856663 127732.135776 103566.792255 119978.917248 174953.937345 159177.928555 156421.416434 248781.254055 223057.193482 28214.3641494 118364.272757 191735.130125 80900.6859723 42951.7630894 3037.60892539 30606.0746487 215131.405835 193966.967118 57338.7404691 76387.832945 45127.8066861 79839.972916 134253.59314 195341.901258 178495.52504 40724.3870469 70383.457989 79363.981291 190281.557193 139244.870382 178206.563386 164342.551805 136644.694089 221789.557186 223054.550402 183489.807656 139372.355327 156036.202337 157815.863211 164519.37253 127023.56675 111852.915525 26932.7571876 112061.928842 239222.527491 211082.753498 156277.253593 224972.961598 228572.842478 210654.35374 181804.228839 47804.5262085 12822.5932395 178047.820598 179746.657974 188403.302414 212854.397396 204513.002449 88458.7935728 71699.3989084 76801.1011622 42877.8790592 143900.04658 38684.2474257 75425.2611272 143408.23166 177792.573936 148094.699096 65046.5552709 111053.204478 -139914.806041 -128054.123745 -103993.932215 -120113.131264 -174828.695378 -159265.045393 -156696.590489 -249286.871206 -223191.670462 -26593.0979742 -117717.583531 -191547.86644 -80027.3067013 -41630.1066553 -1663.70233015 -29731.7479942 -215938.96004 -195407.246426 -57133.1197607 -76173.8155068 -43669.3375643 -78455.7348845 -133375.760404 -195562.194131 -179161.184561 -69316.680706 -39533.2213658 -78153.2373459 -189831.669754 -138448.471365 -177569.067007 -163763.35884 -135720.612728 -221794.804511 -222943.702906 117021.196635 -37935.3712268 88483.9182998 113414.834248 -1819.8576323 -43220.4358112 137196.254102 130283.574014 11955.7802134 -28433.0193477 66829.3180156 71356.6342424 9311.19233741 -15120.1907492 41756.176653 40537.3386482 14078.4327 -48188.1265405 121830.377691 108311.416521 25667.089136 131724.447406 139849.535557 -895.494152881 17038.0962102 3000.60204359 130341.549521 14211.7360515 -53471.0079245 2188.72609518 31603.2667987 1496.60687213 -789.600421861 -90360.08073 30839.3689967 -108383.439528 -85370.2707114 -21857.9569773 10183.7236633 -43017.3279148 -43415.8535018 -14010.2189382 45038.2178662 -121058.714034 -106517.582318 -6914.00962382 42862.1604275 -136558.209061 -126222.829591 -9094.65830843 25727.5623741 -63229.6872096 -92696.5468385 1737.50617581 -353.372272502 -16868.801525 -132583.365453 -139868.158409 -658.732038613 -32785.8431296 -1303.8684831 12346.2106642 -4717.07393681 -129084.200159 -15308.6604875 52481.3226269 -117495.736429 38959.4255713 -87786.3247583 -113578.673028 2250.8760174 41115.1569793 -139264.378983 -133163.616 -14393.4235398 30639.4156545 -65133.2988628 -69890.0651428 -7556.5005147 17304.5765878 -40277.2501245 -38695.5972598 -11648.3463402 47061.2283433 -123204.374801 -109739.600672 -26933.0794486 -133106.766792 -141458.231443 551.613996386 -16922.7790904 -5031.48249136 -133072.725926 -17022.0442459 51571.1812428 -1667.27837662 -30571.8576314 183.267596782 2112.04307115 89715.7010168 -44383.0607937 123642.29202 108033.878552 7543.79062793 -11063.8298504 42466.1608702 40568.3187426 12465.076864 -30911.6415524 108547.453059 84901.1698359 21507.2442518 -26761.1162187 64049.1914517 87631.7905013 -3671.07037614 -42526.945603 137997.744453 128030.139277 10444.4824796 -458.14481474 15901.6141577 131892.114858 139994.363418 649.717561876 33896.573726 758.912206659 -12347.422328 3396.7859002 129915.838207 15385.579198 -53331.640205 200073.707197 167191.11398 37529.7212364 53757.561873 140429.400455 128214.247628 197009.687912 139642.544916 180349.102559 151040.426764 132841.362065 121655.034694 110230.600725 172483.678241 122926.996624 108952.478761 154615.490666 116666.593423 118436.440425 175977.841484 139902.720468 131551.288796 134863.349638 94861.9390882 105420.192238 139911.969617 118987.356556 149795.580744 738.231014988 100320.879523 89523.8048909 72989.2660007 67138.4701937 66967.0457677 4096.99777675 24011.6436929 21671.5756068 146788.314589 161155.194394 17947.9861305 21332.4142255 -7411.20088242 32896.5773336 14965.0650564 43981.2704457 21581.0449197 136877.09423 141282.699436 143951.816349 104582.523915 88551.4350204 37285.1521442 37593.4666328 77878.6375499 161980.684898 236271.338034 202528.037001 212234.240271 -74929.8263341 -66983.1575691 -106870.525267 -76019.3427725 -45066.1883856 -39602.7890635 -151973.701619 -64580.7841269 -46887.9504687 -218581.868514 -97106.8184782 -89232.9993262 -141106.019146 -100158.792131 -115821.670131 -170290.47092 -86577.4577068 -74359.2682956 -117730.232389 -88091.3935537 -59742.2556567 -56173.4557876 -81954.6531229 -65190.4992675 -109588.65713 -87614.6541948 -143058.705315 -103701.583758 6023.69788601 -150566.926992 -185402.471865 -150286.088014 -135873.817663 -121416.645863 -123360.231191 -199755.022132 -228905.738312 -161544.74033 -161420.379641 -136801.444937 -148917.444348 -145248.142121 -136391.826573 -196230.044017 -160042.637043 -116649.834706 -98817.8599887 -151766.886237 -127227.032566 -158022.822779 -2620.2356071 -27233.5994512 -29985.304272 -23331.2762154 -31217.526364 11889.5789814 -44296.7019163 -29795.8401836 -27501.5483623 -22162.8232722 -142070.010806 -125373.720099 -200812.80339 -143209.758763 -153608.507115 -133535.816828 -36152.9937475 -216432.115029 -154797.49094 -52996.4176777 -121683.363707 -110812.090698 -173493.621074 -125538.368105 -107734.920949 -153724.915534 -121687.011267 -117198.446614 -175087.68112 -135114.454308 -139237.128736 -132468.471058 -196221.106176 -152518.839652 -96034.2192134 -104521.58704 -139710.855658 -117702.966466 -146275.84836 -1843.69459738 -98419.21963 -87923.9849392 -70878.9435328 -65705.4900885 -64739.7194465 -4603.43948524 -24503.5025781 -22008.2232874 -17803.3313348 -20921.8241013 6451.81925915 -31707.957175 -13907.7693421 -43726.712261 -21013.503982 -104510.993899 -86293.8703772 -35868.3686352 -35516.2320679 -75988.2545037 -201035.474125 -232051.866275 -162681.771709 -163750.008763 -134031.52121 -148581.649819 -209668.168455 -168850.917696 -150987.165698 -143843.423941 151679.82556 211655.242113 146564.936996 197721.59653 46740.880869 39706.8550974 72249.1160064 51967.8388592 106677.525696 74489.0291168 71584.3580442 63072.2929604 141489.934069 100329.55537 95524.9907741 88231.6405415 173589.592565 123573.316085 79647.5694439 77220.8094972 116578.706396 90189.4710709 52136.1251654 59248.7468502 78105.1249617 70050.603331 107077.482566 85953.2325362 144493.900237 104579.226216 113064.256298 160868.349937 129446.833914 174905.485663 -5819.0385986 178509.443765 214069.399241 178710.419191 36956.0511686 120996.574627 127119.671834 113167.642868 -1197.14322855 35034.1968208 15780.3726823 27224.5487979 27036.2253693 27445.2658291 32264.8826752 21925.8719121 -14035.6303398 137397.094738 137021.832507 135414.529909 145960.480064 147213.312785 160997.426644 143479.945592 137536.373619 141318.896271 177418.861512 147277.400977 176125.786913 112662.600929 142862.805604 223335.000908 235814.083009 134877.840877 166618.150909 110948.944978 144262.115755 80508.7886649 114724.59398 67197.7953727 105623.496942 59614.3887988 67530.643289 192038.077934 223735.383819 124586.746217 130173.711829 251956.672124 222141.264269 24333.7836162 14073.2840591 181505.994295 249197.688123 176905.733964 145160.324656 14162.0307881 55018.1092686 56059.8440921 18009.3026682 -150967.332963 -173453.521603 -194425.997103 -106097.78905 -104712.319554 -68753.7397995 -105568.775976 -50724.6460557 -72304.0213222 -202427.091598 -209816.093358 -122936.121024 -143202.603101 -218437.601808 -234738.147934 -133582.393734 -170497.664474 -105435.879371 -143580.857695 -78796.4655894 -120252.997861 -24797.6760665 -13450.5828009 -220425.828177 -251951.643851 -19656.1495662 -53841.0763182 -49071.7607814 -26207.7708424 -181944.149219 -248700.618144 -176753.648918 -144650.444763 -178442.030517 -146365.912738 -176272.887985 -111421.574092 -142075.996162 -215633.010338 -239327.1106 -136109.456186 -168176.824633 -109369.095708 -142794.197635 -78760.7079231 -113039.353996 -66185.2421693 -104040.06189 -58411.6182862 -65576.6548914 -194285.209076 -225378.74303 -125049.419117 -130915.248829 -221225.8624 -252630.999469 -25017.7904676 -15800.0057933 -182268.040403 -251632.676163 -179299.131628 -144836.087412 -14139.8628252 -54752.2768283 -54884.9966315 -18214.2096606 151769.68615 200645.522082 211875.481293 124569.008697 145645.880941 70332.8087935 103851.196736 52230.2688197 73242.4972514 176371.95876 196259.601902 107798.958116 105978.420298 106674.847513 143703.149779 79835.3952548 121233.861643 219652.530759 236502.112383 135523.619339 170954.955258 20688.8002746 11478.5288934 251354.392958 225857.432605 19113.7336812 52031.3937942 48502.5306751 24805.6402951 181572.151945 250930.531042 178166.424894 144968.10275 71462.32513 87432.4367758 101844.179197 35226.0626726 53752.8411018 60088.1457019 107115.417821 104259.63849 106246.998675 13400.1519102 27431.5999827 93743.7204129 56362.2232511 -57081.7421656 -41388.5452294 -33834.9443725 -101894.70566 -91310.5033062 -102173.326623 3286.30917775 -21712.1043271 -85867.5751565 -65617.1777318 -106702.039455 -96933.2271258 -103817.476959 -104192.216526 -33443.5726344 -52244.1245628 -58263.4595036 -69954.2199036 -86381.4151152 -101380.508401 -54666.1233555 -15203.4370002 -25351.6306029 -93390.2499115 -107647.903221 -105943.153585 106345.070218 103223.419307 105419.646953 -6801.86277952 89983.6953332 103698.578393 40463.2853429 21739.5795454 86287.1764021 67406.8727654 60824.3197072 99833.7228821 62006.7804609 34812.541944 7518.22451147 -80717.5159056 10271.3743907 42771.4391426 95526.4472818 21254.7826502 44541.4361029 15223.8538402 30824.5649283 46378.7413702 35573.035625 -8441.91497831 21148.960836 36659.3467639 33772.3980033 53411.8596985 -31587.4702285 -5194.10356124 22664.4205969 74259.5951329 -18846.291816 -34636.6735194 -805.612102726 -44032.8067767 -95917.6394882 80821.9354366 -11994.2379609 -34038.2098593 -34036.2366415 -57077.3294 33887.6796338 -22231.8856655 -9519.74285103 -75194.3585857 23591.2401433 -17577.8864265 -43853.1562947 -20395.6255246 -32361.9608631 -37434.0711002 -45652.7696813 6815.8682823 -20507.9767026 -34599.3802495 -11104.2204366 82959.7323008 -10741.2089046 -43231.7022549 -98177.5302317 -19850.6166557 -42181.6325505 -18003.7983695 -32072.2657878 -34480.3752292 -44978.9973441 6125.5332815 -19956.5401638 -35035.5993448 -32046.7727504 -51922.1529067 31320.3531664 6500.14662394 -23942.6041744 -75840.0143502 20338.4178849 34608.331823 -16435.9194085 41626.5223011 95481.3121355 -23180.6327785 25502.2249542 30702.9214062 59840.5053395 13364.8939162 38014.1161922 17927.3606296 39636.975868 45137.0922653 36238.2750231 -10342.5188287 19310.920116 25430.8753151 -6527.51876282 -18027.0677135 28749.761529 73002.0264734 187362.897247 93024.8455717 43551.6369457 52916.9095794 -35697.0479709 101219.982358 6285.25910562 -97196.8187084 -5528.6485354 -168448.493188 -40151.8166924 -44411.8762017 -93631.4351315 35215.5587149 -75726.3683562 26838.6659219 -70632.7924893 -98058.3974168 -76675.7835896 -50387.4629655 -98724.7246127 -96096.2073466 -9700.10444298 8661.38260989 166355.17218 31416.6816796 45685.8832717 53467.3945703 83109.414308 -37382.1211071 35533.6044378 162915.045491 106079.17697 189224.529016 109582.223877 92180.042714 173096.134405 99217.9836164 264715.27293 35387.3322723 25176.1276483 15717.1534291 96185.7856793 57506.5435574 236059.291947 270045.931205 201146.342263 180645.294871 179572.819129 258168.582673 -106138.925514 -165842.080256 -185987.356734 -243927.112002 -100547.111332 -167310.943312 -245720.978663 -95830.6955697 -204001.512392 -267128.646916 -186106.950369 -174444.770118 -259938.973302 -105518.216824 -38830.7307229 -28013.8876718 -23253.2419651 -105393.982805 -73330.5649213 -166884.720072 -109373.059241 -193226.039108 -112904.698101 -93633.7768865 -176355.208627 -102351.461904 -265923.508207 -36734.6894352 -25810.068293 -17998.3639549 -98653.1832365 -59875.1092416 -236701.326157 -201961.801805 -263617.86337 -183519.208453 -180845.127759 -258989.44231 116069.591191 164215.573018 184810.6554 239419.604301 98027.144714 165807.177779 242817.95593 94180.9695179 271796.129193 199226.580918 183101.345499 171383.771338 256297.435511 111082.191724 53108.7522412 29472.5782664 22683.5194871 104746.968071 72533.2552971 12720.1309119 5268.37806372 17129.3815458 1251.41800586 -7261.34088023 12732.6130284 -1067.78037885 -3341.99265926 -14347.9262596 -4913.28325402 -5916.10770504 -1507.92037512 -1765.78060432 -13918.4885598 -12517.3074697 -5876.83928695 5865.07002092 -15636.174065 -3127.05193846 -14045.349929 232.560730239 13201.7238136 2498.86000721 2704.64629201 4669.6371237 94.4212692641 14115.1265861 4297.84720082</DataArray>