<?xml version="1.0" ?>
<VTKFile byte_order="LittleEndian" type="PolyData" version="0.1">
  <PolyData>
    <Piece NumberOfPoints="460" NumberOfPolys="916">
      <Points>
        <DataArray NumberOfComponents="3" format="ascii" type="Float32">0.0 0.0 -1.10000001996e-07 1.92000001675e-07 0.0 -1.10000001996e-07 2.41999998707e-07 0.0 -5.9999997859e-08 2.41999998707e-07 0.0 5.9999997859e-08 1.92000001675e-07 0.0 1.10000001996e-07 1.70999996385e-07 0.0 1.10000001996e-07 1.20999999353e-07 0.0 5.9999997859e-08 1.20999999353e-07 0.0 5.00000005843e-08 7.10000023219e-08 0.0 0.0 0.0 0.0 0.0 1.175622131e-23 1.92000001675e-07 -1.10000001996e-07 -1.92000001675e-07 2.35124426199e-23 -1.10000001996e-07 -3.52686615633e-23 -1.92000001675e-07 -1.10000001996e-07 1.48177376295e-23 2.41999998707e-07 -5.9999997859e-08 -2.41999998707e-07 2.96354752589e-23 -5.9999997859e-08 -4.44532113106e-23 -2.41999998707e-07 -5.9999997859e-08 1.48177376295e-23 2.41999998707e-07 5.9999997859e-08 -2.41999998707e-07 2.96354752589e-23 5.9999997859e-08 -4.44532113106e-23 -2.41999998707e-07 5.9999997859e-08 1.175622131e-23 1.92000001675e-07 1.10000001996e-07 -1.92000001675e-07 2.35124426199e-23 1.10000001996e-07 -3.52686615633e-23 -1.92000001675e-07 1.10000001996e-07 1.04703843453e-23 1.70999996385e-07 1.10000001996e-07 -1.70999996385e-07 2.09407686907e-23 1.10000001996e-07 -3.14111538249e-23 -1.70999996385e-07 1.10000001996e-07 7.40886881473e-24 1.20999999353e-07 5.9999997859e-08 -1.20999999353e-07 1.48177376295e-23 5.9999997859e-08 -2.22266056553e-23 -1.20999999353e-07 5.9999997859e-08 7.40886881473e-24 1.20999999353e-07 5.00000005843e-08 -1.20999999353e-07 1.48177376295e-23 5.00000005843e-08 -2.22266056553e-23 -1.20999999353e-07 5.00000005843e-08 4.34735249524e-24 7.10000023219e-08 0.0 -7.10000023219e-08 8.69470499049e-24 0.0 -1.30420574857e-23 -7.10000023219e-08 0.0 4.80000004188e-08 0.0 -1.10000001996e-07 9.60000008376e-08 0.0 -1.10000001996e-07 1.43999997704e-07 0.0 -1.10000001996e-07 2.27355343441e-07 0.0 -9.53553396243e-08 2.41999998707e-07 0.0 -1.99999998785e-08 2.41999998707e-07 0.0 1.99999998785e-08 2.27355343441e-07 0.0 9.53553396243e-08 1.3564465462e-07 0.0 9.53553396243e-08 1.06355336982e-07 0.0 1.46446605953e-08 3.55000011609e-08 0.0 0.0 2.93905532749e-24 4.80000004188e-08 -1.10000001996e-07 5.87811065499e-24 9.60000008376e-08 -1.10000001996e-07 8.81716539083e-24 1.43999997704e-07 -1.10000001996e-07 1.87186159906e-07 4.27240181011e-08 -1.10000001996e-07 1.72986020175e-07 8.33056787997e-08 -1.10000001996e-07 1.5011164578e-07 1.19710037438e-07 -1.10000001996e-07 1.19710037438e-07 1.5011164578e-07 -1.10000001996e-07 8.33056787997e-08 1.72986020175e-07 -1.10000001996e-07 4.27240181011e-08 1.87186159906e-07 -1.10000001996e-07 -4.80000004188e-08 5.87811065499e-24 -1.10000001996e-07 -9.60000008376e-08 1.175622131e-23 -1.10000001996e-07 -1.43999997704e-07 1.76343307817e-23 -1.10000001996e-07 -4.27240181011e-08 1.87186159906e-07 -1.10000001996e-07 -8.33056787997e-08 1.72986020175e-07 -1.10000001996e-07 -1.19710037438e-07 1.5011164578e-07 -1.10000001996e-07 -1.5011164578e-07 1.19710037438e-07 -1.10000001996e-07 -1.72986020175e-07 8.33056787997e-08 -1.10000001996e-07 -1.87186159906e-07 4.27240181011e-08 -1.10000001996e-07 -8.81716539083e-24 -4.80000004188e-08 -1.10000001996e-07 -1.76343307817e-23 -9.60000008376e-08 -1.10000001996e-07 -2.64514969614e-23 -1.43999997704e-07 -1.10000001996e-07 -1.87186159906e-07 -4.27240181011e-08 -1.10000001996e-07 -1.72986020175e-07 -8.33056787997e-08 -1.10000001996e-07 -1.5011164578e-07 -1.19710037438e-07 -1.10000001996e-07 -1.19710037438e-07 -1.5011164578e-07 -1.10000001996e-07 -8.33056787997e-08 -1.72986020175e-07 -1.10000001996e-07 -4.27240181011e-08 -1.87186159906e-07 -1.10000001996e-07 4.27240181011e-08 -1.87186159906e-07 -1.10000001996e-07 8.33056787997e-08 -1.72986020175e-07 -1.10000001996e-07 1.19710037438e-07 -1.5011164578e-07 -1.10000001996e-07 1.5011164578e-07 -1.19710037438e-07 -1.10000001996e-07 1.72986020175e-07 -8.33056787997e-08 -1.10000001996e-07 1.87186159906e-07 -4.27240181011e-08 -1.10000001996e-07 1.39210394385e-23 2.27355343441e-07 -9.53553396243e-08 2.37350036514e-07 4.72118593109e-08 -5.9999997859e-08 2.23578851433e-07 9.26093903786e-08 -5.9999997859e-08 2.01215641482e-07 1.34448001177e-07 -5.9999997859e-08 1.71119836523e-07 1.71119836523e-07 -5.9999997859e-08 1.34448001177e-07 2.01215641482e-07 -5.9999997859e-08 9.26093903786e-08 2.23578851433e-07 -5.9999997859e-08 4.72118593109e-08 2.37350036514e-07 -5.9999997859e-08 -2.27355343441e-07 2.7842078877e-23 -9.53553396243e-08 -4.72118593109e-08 2.37350036514e-07 -5.9999997859e-08 -9.26093903786e-08 2.23578851433e-07 -5.9999997859e-08 -1.34448001177e-07 2.01215641482e-07 -5.9999997859e-08 -1.71119836523e-07 1.71119836523e-07 -5.9999997859e-08 -2.01215641482e-07 1.34448001177e-07 -5.9999997859e-08 -2.23578851433e-07 9.26093903786e-08 -5.9999997859e-08 -2.37350036514e-07 4.72118593109e-08 -5.9999997859e-08 -4.17631198932e-23 -2.27355343441e-07 -9.53553396243e-08 -2.37350036514e-07 -4.72118593109e-08 -5.9999997859e-08 -2.23578851433e-07 -9.26093903786e-08 -5.9999997859e-08 -2.01215641482e-07 -1.34448001177e-07 -5.9999997859e-08 -1.71119836523e-07 -1.71119836523e-07 -5.9999997859e-08 -1.34448001177e-07 -2.01215641482e-07 -5.9999997859e-08 -9.26093903786e-08 -2.23578851433e-07 -5.9999997859e-08 -4.72118593109e-08 -2.37350036514e-07 -5.9999997859e-08 4.72118593109e-08 -2.37350036514e-07 -5.9999997859e-08 9.26093903786e-08 -2.23578851433e-07 -5.9999997859e-08 1.34448001177e-07 -2.01215641482e-07 -5.9999997859e-08 1.71119836523e-07 -1.71119836523e-07 -5.9999997859e-08 2.01215641482e-07 -1.34448001177e-07 -5.9999997859e-08 2.23578851433e-07 -9.26093903786e-08 -5.9999997859e-08 2.37350036514e-07 -4.72118593109e-08 -5.9999997859e-08 1.48177376295e-23 2.41999998707e-07 -1.99999998785e-08 1.48177376295e-23 2.41999998707e-07 1.99999998785e-08 2.37350036514e-07 4.72118593109e-08 5.9999997859e-08 2.23578851433e-07 9.26093903786e-08 5.9999997859e-08 2.01215641482e-07 1.34448001177e-07 5.9999997859e-08 1.71119836523e-07 1.71119836523e-07 5.9999997859e-08 1.34448001177e-07 2.01215641482e-07 5.9999997859e-08 9.26093903786e-08 2.23578851433e-07 5.9999997859e-08 4.72118593109e-08 2.37350036514e-07 5.9999997859e-08 -2.41999998707e-07 2.96354752589e-23 -1.99999998785e-08 -2.41999998707e-07 2.96354752589e-23 1.99999998785e-08 -4.72118593109e-08 2.37350036514e-07 5.9999997859e-08 -9.26093903786e-08 2.23578851433e-07 5.9999997859e-08 -1.34448001177e-07 2.01215641482e-07 5.9999997859e-08 -1.71119836523e-07 1.71119836523e-07 5.9999997859e-08 -2.01215641482e-07 1.34448001177e-07 5.9999997859e-08 -2.23578851433e-07 9.26093903786e-08 5.9999997859e-08 -2.37350036514e-07 4.72118593109e-08 5.9999997859e-08 -4.44532113106e-23 -2.41999998707e-07 -1.99999998785e-08 -4.44532113106e-23 -2.41999998707e-07 1.99999998785e-08 -2.37350036514e-07 -4.72118593109e-08 5.9999997859e-08 -2.23578851433e-07 -9.26093903786e-08 5.9999997859e-08 -2.01215641482e-07 -1.34448001177e-07 5.9999997859e-08 -1.71119836523e-07 -1.71119836523e-07 5.9999997859e-08 -1.34448001177e-07 -2.01215641482e-07 5.9999997859e-08 -9.26093903786e-08 -2.23578851433e-07 5.9999997859e-08 -4.72118593109e-08 -2.37350036514e-07 5.9999997859e-08 4.72118593109e-08 -2.37350036514e-07 5.9999997859e-08 9.26093903786e-08 -2.23578851433e-07 5.9999997859e-08 1.34448001177e-07 -2.01215641482e-07 5.9999997859e-08 1.71119836523e-07 -1.71119836523e-07 5.9999997859e-08 2.01215641482e-07 -1.34448001177e-07 5.9999997859e-08 2.23578851433e-07 -9.26093903786e-08 5.9999997859e-08 2.37350036514e-07 -4.72118593109e-08 5.9999997859e-08 1.39210394385e-23 2.27355343441e-07 9.53553396243e-08 1.87186159906e-07 4.27240181011e-08 1.10000001996e-07 1.72986020175e-07 8.33056787997e-08 1.10000001996e-07 1.5011164578e-07 1.19710037438e-07 1.10000001996e-07 1.19710037438e-07 1.5011164578e-07 1.10000001996e-07 8.33056787997e-08 1.72986020175e-07 1.10000001996e-07 4.27240181011e-08 1.87186159906e-07 1.10000001996e-07 -2.27355343441e-07 2.7842078877e-23 9.53553396243e-08 -4.27240181011e-08 1.87186159906e-07 1.10000001996e-07 -8.33056787997e-08 1.72986020175e-07 1.10000001996e-07 -1.19710037438e-07 1.5011164578e-07 1.10000001996e-07 -1.5011164578e-07 1.19710037438e-07 1.10000001996e-07 -1.72986020175e-07 8.33056787997e-08 1.10000001996e-07 -1.87186159906e-07 4.27240181011e-08 1.10000001996e-07 -4.17631198932e-23 -2.27355343441e-07 9.53553396243e-08 -1.87186159906e-07 -4.27240181011e-08 1.10000001996e-07 -1.72986020175e-07 -8.33056787997e-08 1.10000001996e-07 -1.5011164578e-07 -1.19710037438e-07 1.10000001996e-07 -1.19710037438e-07 -1.5011164578e-07 1.10000001996e-07 -8.33056787997e-08 -1.72986020175e-07 1.10000001996e-07 -4.27240181011e-08 -1.87186159906e-07 1.10000001996e-07 4.27240181011e-08 -1.87186159906e-07 1.10000001996e-07 8.33056787997e-08 -1.72986020175e-07 1.10000001996e-07 1.19710037438e-07 -1.5011164578e-07 1.10000001996e-07 1.5011164578e-07 -1.19710037438e-07 1.10000001996e-07 1.72986020175e-07 -8.33056787997e-08 1.10000001996e-07 1.87186159906e-07 -4.27240181011e-08 1.10000001996e-07 1.65173318578e-07 4.42580549986e-08 1.10000001996e-07 1.48090350649e-07 8.54999981925e-08 1.10000001996e-07 1.20915260027e-07 1.20915260027e-07 1.10000001996e-07 8.54999981925e-08 1.48090350649e-07 1.10000001996e-07 4.42580549986e-08 1.65173318578e-07 1.10000001996e-07 -4.42580549986e-08 1.65173318578e-07 1.10000001996e-07 -8.54999981925e-08 1.48090350649e-07 1.10000001996e-07 -1.20915260027e-07 1.20915260027e-07 1.10000001996e-07 -1.48090350649e-07 8.54999981925e-08 1.10000001996e-07 -1.65173318578e-07 4.42580549986e-08 1.10000001996e-07 -1.65173318578e-07 -4.42580549986e-08 1.10000001996e-07 -1.48090350649e-07 -8.54999981925e-08 1.10000001996e-07 -1.20915260027e-07 -1.20915260027e-07 1.10000001996e-07 -8.54999981925e-08 -1.48090350649e-07 1.10000001996e-07 -4.42580549986e-08 -1.65173318578e-07 1.10000001996e-07 4.42580549986e-08 -1.65173318578e-07 1.10000001996e-07 8.54999
[...]
      <CellData>
        <DataArray Name="rho_e_real" format="ascii" type="Float32">123820.460408 167618.075782 208376.099647 158504.08057 104893.860068 117612.652041 125828.776956 14128.4112604 65716.9792121 105599.357191 125578.811672 87873.127093 146629.287584 142085.120162 183923.502596 234895.650104 30084.123283 19302.1446725 221448.066839 185861.869605 54286.5762185 81111.5556714 88796.3164237 73022.669221 73185.0966669 15721.5467884 8160.90645364 36440.0947791 10937.1358115 19178.2108904 53479.0017867 79223.0354173 43035.6296769 26157.3770742 50130.7786608 -92674.249206 -164891.51908 -125669.955168 -115991.212935 -111928.526967 -144921.024191 -198585.803555 -120599.487856 -122252.570205 -13450.6882396 -71695.2944157 -107145.443414 -53301.9530916 -27943.9649278 -12860.4701282 -32342.676249 -166318.704785 -226528.709831 -72745.8645669 -76480.0946737 -13282.2587876 -29638.5891885 -57454.7109927 -150117.471677 -209306.208099 -8020.40481167 -14549.8015847 -19992.7906829 -54811.4648145 -36270.5947761 -64511.2106944 -73815.2370581 -41745.8464307 -90925.374663 -98177.373631 -123537.505081 -166897.184521 -208212.1703 -158187.210397 -104328.230455 -116839.99042 -124686.352936 -13867.203235 -65047.0551064 -106257.464862 -125529.094817 -87307.4718112 -146944.608745 -142682.43307 -184893.072859 -235849.999271 -29298.2855513 -18231.3533768 -221943.523013 -186140.974618 -54920.5608493 -81469.1635644 -88748.0398999 -72156.2483558 -71957.6133972 -16562.7903859 -8968.44835355 -36953.3132511 -11300.4899914 -19639.2393252 -53361.0016173 -78955.0637767 -43218.985515 -26018.2290338 -49726.2222168 91894.8092656 163923.050819 125414.112062 115410.505618 110768.870478 143690.742926 197009.234357 119477.066444 120827.924419 13220.0470781 71039.9086793 105855.824533 53082.985553 27950.9489625 13396.7609546 33076.8512541 164932.757727 225097.520394 73073.0913594 76527.7795776 12546.1848345 28932.1777834 56508.0282239 148642.175285 207628.023814 13590.0609887 7113.47410843 18990.475082 53776.1156149 35205.6577891 63275.6073317 72640.4450618 40592.4525371 89723.0074463 96824.0997803 128894.79422 166008.880694 105756.918963 146824.881632 174557.12545 212308.717889 158724.199996 193176.974516 232543.59218 118703.445742 80577.3714008 115577.060205 152176.765315 73110.7503724 51538.1255492 78642.2337529 109147.700089 200744.626129 145358.699152 174572.920567 200015.64726 200511.217259 164133.645806 9717.43907354 16723.5728059 262801.996285 201441.739802 251792.360639 230625.935657 10844.8923936 42536.1513175 54256.2748159 27743.5414265 -104616.080312 -174105.519875 -128971.224029 -139493.976618 -170947.453935 -68503.1927123 -48973.6955486 -79185.2285814 -107342.597845 -200716.807645 -149585.527645 -171019.641466 -208118.377501 -219788.153484 -159488.606158 -191902.034401 -233427.119521 -119664.807568 -78265.3054067 -118154.233238 -131443.036904 -9098.71698565 -15738.137342 -200870.223294 -164619.897154 -10558.1739373 -42024.6016777 -52596.0351874 -24833.3340904 -263001.033356 -201304.274978 -252647.249249 -235359.561306 -127854.951376 -165078.45242 -104771.879149 -145608.666216 -173645.119647 -212327.653493 -158124.64598 -192446.237047 -232256.560968 -117634.836892 -79721.5244898 -114517.332407 -150996.649254 -72066.64402 -50848.1013743 -77793.1889193 -107887.783188 -200279.488398 -144504.696325 -173465.809378 -199305.252875 -200831.631512 -164097.299813 -9351.20846634 -16202.3836003 -263688.369224 -201147.697108 -252088.327222 -231271.619705 -9869.04079786 -41909.8023635 -53114.1852562 -26819.7057996 103551.109946 199050.4654 146533.33698 169494.774156 206429.865151 68539.2666144 48758.4676519 78086.6306672 107353.846254 172846.885994 126617.194414 138359.153126 169974.433482 119252.26232 77938.8254803 116635.092609 131021.684512 218210.207446 158364.703369 190078.146976 231525.033442 9312.16243488 15820.9349502 200287.79703 164131.181845 11367.1855392 41820.7958558 52963.9078252 25335.7266878 261845.219204 200458.087932 251032.547205 234109.8482 77823.1315266 83984.2694863 38814.560047 25095.0123572 113305.69851 96530.5878683 70287.450115 86895.1088321 78451.7828776 121534.294726 103009.449977 98435.3831377 88938.2601134 61912.012495 80099.2649876 81444.6475839 52466.4085261 98557.8156822 94554.8818795 68916.5653296 77875.1448061 108906.195548 102917.447112 85899.9229773 80756.0195346 62199.2444061 69670.2886272 102994.446705 8181.27289312 41777.5347824 52822.8802685 59503.8392114 67186.7638505 38365.8531142 5849.37467194 9762.68990457 5496.40687927 117884.729991 132305.281262 14497.3958907 6524.96458962 6011.39110594 20986.4174851 21155.2901102 14552.5994122 18257.1771914 109168.256817 108381.861302 115204.902969 75604.8586002 61074.3204677 21037.2347392 34982.7366245 28768.5309003 93115.1904366 81777.5252035 86686.1831208 81880.835227 -59258.8390111 -49057.0228127 -37523.9189644 -44660.9082134 -36388.4753269 -29263.4074325 -120412.551246 -22714.3615295 -26321.3958818 -78577.1729467 -78876.296229 -65944.2126335 -50100.2058096 -60114.3932408 -101573.343185 -65979.7546842 -63321.0673844 -59051.8949722 -42843.9604227 -50204.6021422 -43213.7387329 -41211.9420289 -28513.9702217 -34571.4770357 -78850.2153321 -75280.1095979 -56200.7235862 -65703.2090897 -10484.9440707 -105811.321553 -78921.6612456 -70018.2998939 -111165.761132 -90297.9689793 -106596.201849 -85768.0315629 -84943.7616318 -96355.0825722 -132809.919076 -110409.682216 -118752.796696 -116623.83171 -109119.561214 -84117.2349388 -93847.7779383 -75662.795891 -82832.8774029 -105031.663512 -97288.3137979 -83039.6094913 -5285.80158592 -8065.37527765 -4588.88336062 -14341.8069368 -6553.2419555 -6372.3623632 -15669.7576688 -19633.745451 -24127.3313076 -23673.1036959 -112213.042764 -96941.6775047 -72773.7755501 -89168.6096101 -121247.175996 -103387.468962 -38123.2309246 -78742.4337561 -94302.4524518 -23562.1594415 -96812.6494714 -87250.157183 -61909.1665941 -80154.7060482 -80244.3354649 -51753.9564728 -97766.6428832 -92618.6768711 -68057.5244703 -79048.8509278 -107850.579919 -104128.941634 -74486.4459434 -88724.674801 -84737.0522792 -79331.1627058 -61624.5600234 -68865.0496188 -103525.787485 -6029.54152125 -40689.9758519 -51974.2966999 -58604.7659649 -66163.9360948 -37446.35529 -4037.23083969 -7929.08858363 -3799.85279573 -13880.1653379 -5333.62330143 -5166.94286561 -20220.2870465 -20003.4946507 -12859.6872095 -16676.3822892 -74643.2284823 -60320.4163861 -19693.043195 -33755.6894547 -27582.6739229 -84724.6518126 -85270.8693851 -94504.502779 -133243.199227 -108869.298877 -118413.698347 -79675.1114557 -92835.692229 -116340.319061 -110320.868437 120135.603564 77179.7282319 113876.146796 73270.7203493 38505.3524872 32895.2519336 24287.1102059 28783.8279002 40123.8989324 47623.5148096 61100.2823183 52088.9188515 50175.8053661 61222.9679427 78802.3848895 67670.70972 64345.4371099 99795.5734756 62485.9480496 59605.5448688 43432.3653256 50967.3072926 44606.6062637 43056.8857795 33694.4177237 37798.3185961 78238.7487939 75406.2181879 55681.4645887 65458.8435636 93437.8025978 66619.1412951 106586.390571 75903.9418864 12153.7368133 89497.9410146 82926.3397012 83758.9605535 23816.6283037 74402.3463794 87835.5983908 82844.8872198 5852.43565344 13203.8043548 10710.3184541 5847.39520195 24117.4300086 25893.5191398 7828.02371479 15054.5361912 7463.01394145 99095.3219534 100001.337374 92818.482087 102516.698558 118266.427554 131220.855996 114344.622975 107429.116352 107656.163227 73662.6451148 60240.6358766 81781.8604284 124042.621028 116403.910732 92579.1680986 107904.004077 160687.785014 155647.182026 45462.9504534 64955.3165221 88864.6815286 103036.203683 30093.4637759 44546.0276487 50130.644507 76666.3188167 84132.4428211 97798.8697175 152585.007217 135142.693051 111673.413036 94233.3774692 10066.1437581 5922.65037752 179411.521831 112616.788115 169347.177398 173363.133068 7151.40512126 23966.7907921 34274.6720499 20311.6019608 -59713.3639525 -74621.8647783 -76919.4986765 -133307.779923 -118413.610354 -27564.7545914 -43741.8167158 -53099.6659323 -72149.4012025 -85721.8146085 -97527.7688944 -153321.041678 -141773.697264 -92310.9579158 -109507.348365 -161482.709771 -158304.194514 -44964.1318865 -66353.5193739 -90187.1926586 -87174.9472998 -7936.28094773 -4180.90309476 -96262.5893776 -113886.345852 -3443.71289923 -22587.8768718 -35540.2620021 -15684.8480402 -182212.207255 -114844.976969 -173135.008638 -176142.56262 -73286.4657061 -59399.1818962 -81179.8097616 -123147.367014 -115558.424081 -92077.2141124 -109372.540631 -161928.19184 -156215.112743 -44095.9544075 -63650.3673755 -87081.1281149 -101473.045808 -28219.5380845 -42583.3262337 -47616.4389911 -74346.2350453 -83814.6936518 -97653.0683776 -152885.090269 -135122.504424 -96216.7208575 -113910.62701 -7766.94119179 -3065.12196695 -182877.464896 -114578.294835 -171177.087296 -174332.504174 -4041.29239854 -21502.8655665 -31289.1509779 -17337.1350458 59071.7727866 84552.067193 95569.2592122 151251.378375 139760.693587 27991.1784425 44365.8890889 53931.5445581 72783.0866352 72880.0096976 75961.2322806 132059.355312 117338.509906 45408.7585084 65928.7470309 90458.5924585 87163.9480989 90617.2230765 106868.205179 160846.910954 155569.875012 10979.7118449 6975.44813387 111719.206491 94120.7115292 6457.99231386 24552.0125543 37828.4004534 18651.1232554 179545.027479 112453.820475 169090.220641 173517.957128 176039.090908 189308.656169 200654.98338 73619.1372638 94204.1580067 128945.182637 227940.826352 236084.496842 236213.229529 14211.7105833 41609.8688714 217616.742748 146541.785211 -127276.076646 -99842.3103523 -74902.8662458 -230226.177232 -215975.282567 -204873.332725 -19333.8945862 -44157.6440271 -166728.799028 -147466.068481 -238787.038298 -179687.051596 -240225.621051 -234848.068793 -70806.2229941 -91653.9676973 -126907.665544 -175324.751628 -189175.807899 -201010.969212 -145205.728462 -10289.4174408 -39164.7539573 -218568.613318 -229789.280017 -239366.852484 235992.310424 236046.771445 231825.176254 23792.1177696 212635.272813 202918.76298 74771.5763758 47866.9085432 166315.266439 149998.351155 128232.220779 181421.448202 94210.0590963 241842.322123 17292.1764324 43959.386537 31403.3596307 182160.497249 163946.67721 191141.469029 223398.260311 138444.221676 196215.187034 233243.994149 225959.305121 180394.782955 298963.040171 153694.758445 139742.916012 94435.159011 131068.956444 98713.691066 46129.928727 15202.4283516 60639.4607186 -243982.734766 -16385.7352622 -181233.184691 -162870.266141 -47359.0370694 -34068.3967288 -156871.025872 -138895.976086 -95040.1992873 -133844.583646 -48564.100849 -94205.4789043 -17033.1875094 -64612.623383 -190832.169506 -226881.33875 -134915.668956 -196532.367602 -224864.957154 -237147.919157 -180025.962199 -299209.508913 -244038.682914 -12923.820142 -48347.8461161 -32011.5377119 -181589.666657 -160457.870723 -190781.81628 -223690.233091 -134890.919312 -195674.786744 -226836.631691 -234887.752892 -180169.255207 -298833.672922 -152610.126319 -138223.179503 -94407.9590767 -129992.232576 -96165.1503753 -43547.8241626 -13605.6174328 -60444.4489565 241959.948442 28102.8788518 182214.314149 163344.748578 37435.1226177 29429.9487772 153183.952405 93434.2439823 186233.543082 223390.21123 134449.288845 191972.671129 234867.361834 224155.249053 179416.615814 298682.056666 50472.4635204 92820.3942999 122007.270917 133000.288197 18290.9447484 81637.2112175 106262.256601 84366.8998981 109427.521267 16107.9810005 59046.2660194 50133.6030457 -68508.5426913 -49866.7746522 -87096.195304 -88363.5938913 -106974.356187 -110377.569648 -19293.0655534 -19452.8617919 -11886.2747761 -20203.7865989 -99864.3264995 -105293.194152 -113350.371356 -80634.4108059 -57465.7372168 -50398.3650505 75404.1679004 84843.2739683 95084.3262072 69921.1202823 109210.716275 111291.607719 26685.5206084 31079.7862263 46589.2291316 35055.5618102 18194.2515061 10296.8631184 18042.7773231 3950.77732676 12469.7261693 15315.5720723 13459.4800902 1183.00717305 634.089962337 8942.88049033 4197.14044384 19679.2160872 25358.5473726 53681.9119353 16718.1129845 14383.1091374 21801.7709902 -35787.5335973 -46053.7302472 -16357.6931095 -20355.4613563 -15780.0012477 -3776.22883285 -13295.7020533 -12215.482239 -51776.1623936 -23550.2521966 -16313.4589203 -14761.3115385 -21445.8042477 -11209.0680055 -16173.2127859 -3214.68154564 -827.580809867 -8935.32481633 -6158.55686875 -43505.2926807 -34559.8193726 -16808.8351901 -10771.0479133 -17632.9592517 -3701.35394229 -12250.8452537 -14805.2217268 -14451.0788073 -2265.96775834 436.059157051 -8637.33978406 -3437.87499523 -20343.3022989 -53573.0432192 -23254.3884684 -16859.1652774 -14813.6709206 -21353.5691773 28603.5249432 46784.1317224 17019.4883539 21207.3183146 17128.3349714 4512.62163637 14844.9772264 12682.719517 25405.4222789 54026.7970902 16626.3032806 15715.1034259 22357.2894361 9491.59093216 7730.36158604 2167.35689136 1571.08607228 9760.11644868 6907.03689325 12827.5039083 6635.31202487 22530.9792511 28749.9451043 21647.4899264 10100.9379996 6771.75776686 -7181.03721346 -15791.3841668 -22377.9967226 -13647.189142 -4879.66571795 -26508.1154353 -27678.7586619 -11996.8126434 -5789.89317539 -20783.4989276 -23290.0484131 -27711.9966775 -9179.80025591 -5859.89563125 16711.1181869 8132.18792775 23530.2463666 14652.4937331 6013.36307972 28446.2567804 27790.2011352</DataArray>