<?xml version="1.0" ?>
<VTKFile byte_order="LittleEndian" type="PolyData" version="0.1">
  <PolyData>
    <Piece NumberOfPoints="460" NumberOfPolys="916">
      <Points>
        <DataArray NumberOfComponents="3" format="ascii" type="Float32">0.0 0.0 -1.10000001996e-07 1.92000001675e-07 0.0 -1.10000001996e-07 2.41999998707e-07 0.0 -5.9999997859e-08 2.41999998707e-07 0.0 5.9999997859e-08 1.92000001675e-07 0.0 1.10000001996e-07 1.70999996385e-07 0.0 1.10000001996e-07 1.20999999353e-07 0.0 5.9999997859e-08 1.20999999353e-07 0.0 5.00000005843e-08 7.10000023219e-08 0.0 0.0 0.0 0.0 0.0 1.175622131e-23 1.92000001675e-07 -1.10000001996e-07 -1.92000001675e-07 2.35124426199e-23 -1.10000001996e-07 -3.52686615633e-23 -1.92000001675e-07 -1.10000001996e-07 1.48177376295e-23 2.41999998707e-07 -5.9999997859e-08 -2.41999998707e-07 2.96354752589e-23 -5.9999997859e-08 -4.44532113106e-23 -2.41999998707e-07 -5.9999997859e-08 1.48177376295e-23 2.41999998707e-07 5.9999997859e-08 -2.41999998707e-07 2.96354752589e-23 5.9999997859e-08 -4.44532113106e-23 -2.41999998707e-07 5.9999997859e-08 1.175622131e-23 1.92000001675e-07 1.10000001996e-07 -1.92000001675e-07 2.35124426199e-23 1.10000001996e-07 -3.52686615633e-23 -1.92000001675e-07 1.10000001996e-07 1.04703843453e-23 1.70999996385e-07 1.10000001996e-07 -1.70999996385e-07 2.09407686907e-23 1.10000001996e-07 -3.14111538249e-23 -1.70999996385e-07 1.10000001996e-07 7.40886881473e-24 1.20999999353e-07 5.9999997859e-08 -1.20999999353e-07 1.48177376295e-23 5.9999997859e-08 -2.22266056553e-23 -1.20999999353e-07 5.9999997859e-08 7.40886881473e-24 1.20999999353e-07 5.00000005843e-08 -1.20999999353e-07 1.48177376295e-23 5.00000005843e-08 -2.22266056553e-23 -1.20999999353e-07 5.00000005843e-08 4.34735249524e-24 7.10000023219e-08 0.0 -7.10000023219e-08 8.69470499049e-24 0.0 -1.30420574857e-23 -7.10000023219e-08 0.0 4.80000004188e-08 0.0 -1.10000001996e-07 9.60000008376e-08 0.0 -1.10000001996e-07 1.43999997704e-07 0.0 -1.10000001996e-07 2.27355343441e-07 0.0 -9.53553396243e-08 2.41999998707e-07 0.0 -1.99999998785e-08 2.41999998707e-07 0.0 1.99999998785e-08 2.27355343441e-07 0.0 9.53553396243e-08 1.3564465462e-07 0.0 9.53553396243e-08 1.06355336982e-07 0.0 1.46446605953e-08 3.55000011609e-08 0.0 0.0 2.93905532749e-24 4.80000004188e-08 -1.10000001996e-07 5.87811065499e-24 9.60000008376e-08 -1.10000001996e-07 8.81716539083e-24 1.43999997704e-07 -1.10000001996e-07 1.87186159906e-07 4.27240181011e-08 -1.10000001996e-07 1.72986020175e-07 8.33056787997e-08 -1.10000001996e-07 1.5011164578e-07 1.19710037438e-07 -1.10000001996e-07 1.19710037438e-07 1.5011164578e-07 -1.10000001996e-07 8.33056787997e-08 1.72986020175e-07 -1.10000001996e-07 4.27240181011e-08 1.87186159906e-07 -1.10000001996e-07 -4.80000004188e-08 5.87811065499e-24 -1.10000001996e-07 -9.60000008376e-08 1.175622131e-23 -1.10000001996e-07 -1.43999997704e-07 1.76343307817e-23 -1.10000001996e-07 -4.27240181011e-08 1.87186159906e-07 -1.10000001996e-07 -8.33056787997e-08 1.72986020175e-07 -1.10000001996e-07 -1.19710037438e-07 1.5011164578e-07 -1.10000001996e-07 -1.5011164578e-07 1.19710037438e-07 -1.10000001996e-07 -1.72986020175e-07 8.33056787997e-08 -1.10000001996e-07 -1.87186159906e-07 4.27240181011e-08 -1.10000001996e-07 -8.81716539083e-24 -4.80000004188e-08 -1.10000001996e-07 -1.76343307817e-23 -9.60000008376e-08 -1.10000001996e-07 -2.64514969614e-23 -1.43999997704e-07 -1.10000001996e-07 -1.87186159906e-07 -4.27240181011e-08 -1.10000001996e-07 -1.72986020175e-07 -8.33056787997e-08 -1.10000001996e-07 -1.5011164578e-07 -1.19710037438e-07 -1.10000001996e-07 -1.19710037438e-07 -1.5011164578e-07 -1.10000001996e-07 -8.33056787997e-08 -1.72986020175e-07 -1.10000001996e-07 -4.27240181011e-08 -1.87186159906e-07 -1.10000001996e-07 4.27240181011e-08 -1.87186159906e-07 -1.10000001996e-07 8.33056787997e-08 -1.72986020175e-07 -1.10000001996e-07 1.19710037438e-07 -1.5011164578e-07 -1.10000001996e-07 1.5011164578e-07 -1.19710037438e-07 -1.10000001996e-07 1.72986020175e-07 -8.33056787997e-08 -1.10000001996e-07 1.87186159906e-07 -4.27240181011e-08 -1.10000001996e-07 1.39210394385e-23 2.27355343441e-07 -9.53553396243e-08 2.37350036514e-07 4.72118593109e-08 -5.9999997859e-08 2.23578851433e-07 9.26093903786e-08 -5.9999997859e-08 2.01215641482e-07 1.34448001177e-07 -5.9999997859e-08 1.71119836523e-07 1.71119836523e-07 -5.9999997859e-08 1.34448001177e-07 2.01215641482e-07 -5.9999997859e-08 9.26093903786e-08 2.23578851433e-07 -5.9999997859e-08 4.72118593109e-08 2.37350036514e-07 -5.9999997859e-08 -2.27355343441e-07 2.7842078877e-23 -9.53553396243e-08 -4.72118593109e-08 2.37350036514e-07 -5.9999997859e-08 -9.26093903786e-08 2.23578851433e-07 -5.9999997859e-08 -1.34448001177e-07 2.01215641482e-07 -5.9999997859e-08 -1.71119836523e-07 1.71119836523e-07 -5.9999997859e-08 -2.01215641482e-07 1.34448001177e-07 -5.9999997859e-08 -2.23578851433e-07 9.26093903786e-08 -5.9999997859e-08 -2.37350036514e-07 4.72118593109e-08 -5.9999997859e-08 -4.17631198932e-23 -2.27355343441e-07 -9.53553396243e-08 -2.37350036514e-07 -4.72118593109e-08 -5.9999997859e-08 -2.23578851433e-07 -9.26093903786e-08 -5.9999997859e-08 -2.01215641482e-07 -1.34448001177e-07 -5.9999997859e-08 -1.71119836523e-07 -1.71119836523e-07 -5.9999997859e-08 -1.34448001177e-07 -2.01215641482e-07 -5.9999997859e-08 -9.26093903786e-08 -2.23578851433e-07 -5.9999997859e-08 -4.72118593109e-08 -2.37350036514e-07 -5.9999997859e-08 4.72118593109e-08 -2.37350036514e-07 -5.9999997859e-08 9.26093903786e-08 -2.23578851433e-07 -5.9999997859e-08 1.34448001177e-07 -2.01215641482e-07 -5.9999997859e-08 1.71119836523e-07 -1.71119836523e-07 -5.9999997859e-08 2.01215641482e-07 -1.34448001177e-07 -5.9999997859e-08 2.23578851433e-07 -9.26093903786e-08 -5.9999997859e-08 2.37350036514e-07 -4.72118593109e-08 -5.9999997859e-08 1.48177376295e-23 2.41999998707e-07 -1.99999998785e-08 1.48177376295e-23 2.41999998707e-07 1.99999998785e-08 2.37350036514e-07 4.72118593109e-08 5.9999997859e-08 2.23578851433e-07 9.26093903786e-08 5.9999997859e-08 2.01215641482e-07 1.34448001177e-07 5.9999997859e-08 1.71119836523e-07 1.71119836523e-07 5.9999997859e-08 1.34448001177e-07 2.01215641482e-07 5.9999997859e-08 9.26093903786e-08 2.23578851433e-07 5.9999997859e-08 4.72118593109e-08 2.37350036514e-07 5.9999997859e-08 -2.41999998707e-07 2.96354752589e-23 -1.99999998785e-08 -2.41999998707e-07 2.96354752589e-23 1.99999998785e-08 -4.72118593109e-08 2.37350036514e-07 5.9999997859e-08 -9.26093903786e-08 2.23578851433e-07 5.9999997859e-08 -1.34448001177e-07 2.01215641482e-07 5.9999997859e-08 -1.71119836523e-07 1.71119836523e-07 5.9999997859e-08 -2.01215641482e-07 1.34448001177e-07 5.9999997859e-08 -2.23578851433e-07 9.26093903786e-08 5.9999997859e-08 -2.37350036514e-07 4.72118593109e-08 5.9999997859e-08 -4.44532113106e-23 -2.41999998707e-07 -1.99999998785e-08 -4.44532113106e-23 -2.41999998707e-07 1.99999998785e-08 -2.37350036514e-07 -4.72118593109e-08 5.9999997859e-08 -2.23578851433e-07 -9.26093903786e-08 5.9999997859e-08 -2.01215641482e-07 -1.34448001177e-07 5.9999997859e-08 -1.71119836523e-07 -1.71119836523e-07 5.9999997859e-08 -1.34448001177e-07 -2.01215641482e-07 5.9999997859e-08 -9.26093903786e-08 -2.23578851433e-07 5.9999997859e-08 -4.72118593109e-08 -2.37350036514e-07 5.9999997859e-08 4.72118593109e-08 -2.37350036514e-07 5.9999997859e-08 9.26093903786e-08 -2.23578851433e-07 5.9999997859e-08 1.34448001177e-07 -2.01215641482e-07 5.9999997859e-08 1.71119836523e-07 -1.71119836523e-07 5.9999997859e-08 2.01215641482e-07 -1.34448001177e-07 5.9999997859e-08 2.23578851433e-07 -9.26093903786e-08 5.9999997859e-08 2.37350036514e-07 -4.72118593109e-08 5.9999997859e-08 1.39210394385e-23 2.27355343441e-07 9.53553396243e-08 1.87186159906e-07 4.27240181011e-08 1.10000001996e-07 1.72986020175e-07 8.33056787997e-08 1.10000001996e-07 1.5011164578e-07 1.19710037438e-07 1.10000001996e-07 1.19710037438e-07 1.5011164578e-07 1.10000001996e-07 8.33056787997e-08 1.72986020175e-07 1.10000001996e-07 4.27240181011e-08 1.87186159906e-07 1.10000001996e-07 -2.27355343441e-07 2.7842078877e-23 9.53553396243e-08 -4.27240181011e-08 1.87186159906e-07 1.10000001996e-07 -8.33056787997e-08 1.72986020175e-07 1.10000001996e-07 -1.19710037438e-07 1.5011164578e-07 1.10000001996e-07 -1.5011164578e-07 1.19710037438e-07 1.10000001996e-07 -1.72986020175e-07 8.33056787997e-08 1.10000001996e-07 -1.87186159906e-07 4.27240181011e-08 1.10000001996e-07 -4.17631198932e-23 -2.27355343441e-07 9.53553396243e-08 -1.87186159906e-07 -4.27240181011e-08 1.10000001996e-07 -1.72986020175e-07 -8.33056787997e-08 1.10000001996e-07 -1.5011164578e-07 -1.19710037438e-07 1.10000001996e-07 -1.19710037438e-07 -1.5011164578e-07 1.10000001996e-07 -8.33056787997e-08 -1.72986020175e-07 1.10000001996e-07 -4.27240181011e-08 -1.87186159906e-07 1.10000001996e-07 4.27240181011e-08 -1.87186159906e-07 1.10000001996e-07 8.33056787997e-08 -1.72986020175e-07 1.10000001996e-07 1.19710037438e-07 -1.5011164578e-07 1.10000001996e-07 1.5011164578e-07 -1.19710037438e-07 1.10000001996e-07 1.72986020175e-07 -8.33056787997e-08 1.10000001996e-07 1.87186159906e-07 -4.27240181011e-08 1.10000001996e-07 1.65173318578e-07 4.42580549986e-08 1.10000001996e-07 1.48090350649e-07 8.54999981925e-08 1.10000001996e-07 1.20915260027e-07 1.20915260027e-07 1.10000001996e-07 8.54999981925e-08 1.48090350649e-07 1.10000001996e-07 4.42580549986e-08 1.65173318578e-07 1.10000001996e-07 -4.42580549986e-08 1.65173318578e-07 1.10000001996e-07 -8.54999981925e-08 1.48090350649e-07 1.10000001996e-07 -1.20915260027e-07 1.20915260027e-07 1.10000001996e-07 -1.48090350649e-07 8.54999981925e-08 1.10000001996e-07 -1.65173318578e-07 4.42580549986e-08 1.10000001996e-07 -1.65173318578e-07 -4.42580549986e-08 1.10000001996e-07 -1.48090350649e-07 -8.54999981925e-08 1.10000001996e-07 -1.20915260027e-07 -1.20915260027e-07 1.10000001996e-07 -8.54999981925e-08 -1.48090350649e-07 1.10000001996e-07 -4.42580549986e-08 -1.65173318578e-07 1.10000001996e-07 4.42580549986e-08 -1.65173318578e-07 1.10000001996e-07 8.54999
[...]
      <CellData>
        <DataArray Name="rho_e_real" format="ascii" type="Float32">3697.54717055 -85446.2619159 -106837.080353 -56804.5533755 14009.59961 -34927.9322583 -63148.9623358 10252.0071115 26806.8762626 106155.83874 37677.5563278 35677.376147 15577.4786992 31457.1460313 -45955.8573905 -121639.8101 -2698.80479458 -10501.1003929 -110616.323696 -74041.0942492 151784.51528 136455.409158 98807.0522691 -10351.5931897 -34032.2076111 87807.2857646 37599.4740052 134884.641248 29280.1964125 67812.3930276 93573.7901682 82309.7940715 113440.813349 34922.3220098 52284.7085887 -5767.02801418 82822.2596725 63634.3750806 42528.2493346 -14284.356138 42182.5276794 101020.070493 -88527.6917651 -48601.774662 -12183.7412585 -21190.744207 -44086.4306492 -7022.8672286 -8438.06638224 4644.34205609 15716.4180227 16063.4623733 107149.805752 35373.0403456 29432.1083787 -35099.1977186 -48750.8548197 -63458.4011767 19373.538308 98475.1661852 -31334.3553543 -74779.0242977 -68347.6821668 -158712.141652 -131036.681399 -114520.068803 -75139.6629216 -113418.177274 -127391.271514 -97402.312488 -3893.36601981 85812.0319311 107094.231077 56926.3091423 -14240.0543699 34995.3397799 63375.4077491 -11149.4957416 -27321.438156 -106924.180316 -38079.6615609 -36089.0282632 -15978.6584133 -31936.3064748 45645.6076318 121528.389625 2179.69107282 10183.1988244 110599.103054 73992.6957426 -153053.294034 -137407.86483 -99554.3946293 10113.1099053 33953.2032851 -89466.6445601 -39291.1561625 -136304.400156 -30669.471824 -69292.7623308 -94567.0093115 -83021.2181052 -114703.97515 -35955.8502206 -53093.7057083 5543.57722929 -82406.8650271 -63367.3781236 -42400.1055668 14098.4883847 -42035.5831857 -100650.887011 87883.8975566 48262.6101797 11188.6331889 20688.6077747 43750.1823376 6459.68174459 7745.54023514 -5183.22668021 -15980.9983727 -16332.7781412 -107250.913666 -35467.9231469 -29554.4187888 33720.6057112 47642.3907832 62630.142182 -19421.8901718 -98341.8809785 73112.3559235 29649.1686042 66883.193074 157468.349908 129641.07809 113600.105212 74439.8902591 112209.364089 126574.429048 96771.1556276 -23355.9789641 -83373.4514959 -22943.3947733 -45346.1810143 -111578.254505 -106743.631159 -37470.2204385 -65645.5148768 -152136.131443 -60738.6583648 -17102.5604317 -38633.7835072 -95238.5854288 -38482.6827598 -10504.3561166 -26726.0912835 -66226.8132569 -102167.875689 -36147.7823425 -59435.2668121 -120894.573285 -66161.0374329 -39189.7075451 -4323.29030163 -4393.70533811 -171097.887084 -69621.717349 -161668.215356 -121634.171272 -8521.64272086 -15016.2129469 -36674.6545589 -14617.5403175 19745.3634881 89462.2074597 28008.3662798 46606.0096513 103502.572009 36458.0182346 11029.5124138 27256.5573369 67134.7547345 104746.859504 33445.8195167 59185.9275812 133274.535971 115879.215915 37265.0994472 66115.9057329 151423.485641 62010.566992 19540.5697304 39703.1069839 85877.0079693 3108.43209813 3333.69757763 66131.0454837 39489.9553399 7296.70469165 14182.158386 36027.8400877 12192.9222783 169603.939837 70369.3048297 162695.024909 127914.762634 23334.6978535 83713.7979924 22756.0533613 45277.7870022 111969.612966 106956.596793 37904.8629031 65730.5228421 152571.028029 60916.0138306 16867.4683338 38493.712404 95560.4342905 38420.9259561 10291.4882773 26524.0228396 66367.1494037 102520.651121 36504.8013132 59480.7858388 121343.666188 66117.5871876 39019.1984888 4221.84388935 4263.76048403 171215.009334 69609.2929064 161878.443141 121732.155179 8372.21697599 14888.1128763 36562.465084 14441.807911 -19458.739915 -104535.299782 -35459.4921198 -59080.2199955 -132952.289985 -36432.909115 -9539.78812454 -26700.4036727 -66520.2246312 -89100.3936904 -28486.5930106 -46296.1939139 -102901.804026 -61651.4821607 -17465.4838527 -39326.8844063 -85254.4588176 -115831.080548 -38142.4043968 -66073.6519871 -151292.386564 -3171.65774157 -3389.14548129 -66199.3124482 -39705.966004 -7391.67972064 -13958.405442 -35908.196871 -12395.2556539 -169485.040544 -70241.2427967 -162596.198182 -127794.639541 24286.5909836 -4403.74249464 13321.0435658 8220.36484416 37297.5875193 25034.1534294 28003.0410305 -5527.05837993 3116.11996161 38893.7106313 22156.2509952 33806.3166896 25245.8905373 21973.8819372 -1373.40864209 25842.3206271 19594.7700973 48670.0193459 16814.7621728 4470.47344523 5985.18308536 52248.6967968 14623.049935 38694.3939659 14083.1715785 2903.64781681 5801.74730566 9875.02078911 1277.8877051 11658.9536752 -1047.37528799 17247.8800636 27532.51133 15766.0068424 1141.44767046 3565.77260662 -2166.44976265 43745.5935661 34565.418716 3503.83538086 1130.87094816 2040.15758233 8915.62786576 5485.64238651 99.1823177004 1908.96165225 30207.8997605 23373.5494367 50777.7681948 11182.2025652 4231.41320663 2281.55586015 5103.89229163 -3676.73502566 -12675.0120146 41708.4900221 13323.7549649 13183.5964247 -19858.2714159 -15907.706485 -14461.8495565 1587.489147 -12603.3720936 -11063.9752699 -40189.3790995 -9363.70364183 1551.94028586 -24664.5865509 -26642.6297157 -18794.7669078 -18755.0860558 636.228320423 -31365.9205391 -24796.3927092 -31790.4774476 -11634.9600613 -865.875763965 -6586.24382962 -22213.1260378 -7717.5106125 -1381.73692916 -5631.6315089 -35713.6820486 -13927.0654041 212.141062808 -7347.28349651 -3687.5767534 -12551.2298317 -20235.699139 5961.22037841 -30854.8034548 -35911.0123382 -42551.3162503 -7920.13126582 -37761.3002868 2505.12941129 -34374.1581778 -31467.8634832 -44088.2995476 -49311.5290359 -26448.4754441 -2598.00882286 -1836.01858366 -9851.03295061 -8392.69877378 -13203.6572367 -7477.06270876 5017.86439425 -2617.06316631 -4203.11503397 2177.15931859 -4478.79439915 -2557.73762835 -3756.70315085 -2807.59158634 -3501.71307232 -11859.9304829 -6952.20311359 -37075.8019614 -30343.1740815 -26213.4947009 3938.94229027 -38877.5824148 -35964.6717171 -13546.5128748 -28550.8212578 9069.29020153 -8276.04959708 -33836.9718217 -24920.5144149 -22476.1721346 -395.771934428 -26153.1641982 -19945.9069089 -49300.2204678 -18047.8369719 -1809.81027651 -9522.05006108 -53752.7664255 -18242.3402953 -2225.75985009 -12091.7261973 -39139.8126749 -14671.9184798 -2825.48082352 -6805.7718229 -11832.0733045 -1224.76206968 -11880.5035764 794.923774288 -17622.2234724 -27873.7265814 -16011.7042256 -1204.68503547 -3468.17790582 2190.66809837 -3573.09352145 -1240.64932792 -2063.64668568 -9050.56139155 -5619.33300661 -102.740313348 -1963.02478829 -11523.4158589 -4736.78885274 -2388.26286025 -5329.54474926 3512.12341643 -8549.63210931 -38305.4756253 8659.2478677 -35203.4424662 -38807.1833183 -44710.0784008 -5446.79832674 -6928.09627231 -54145.6036284 -25807.5251527 38170.6489009 22728.3782309 32759.4168908 26303.0228564 11444.366302 11172.2653037 11262.931966 -4758.10979843 18528.6654342 -738.22532836 17472.7098492 16421.7267261 19191.6384105 -168.87305806 26697.7285111 18913.6814384 25032.3352309 28620.6302171 31240.1998757 10535.7134608 2098.03251943 7050.84897542 21299.2257419 7731.12378774 4153.15905564 5315.7681853 38524.2647318 11578.6625215 71.01176344 7435.58519813 44420.3547819 -3014.74388726 47674.135208 -4644.33753655 3786.0659472 637.612720485 24081.6662426 -6774.6925597 4482.49836178 5833.30167625 4438.11373543 10760.0376152 2506.73183383 1991.31984581 5554.28867114 -2448.71536966 11599.4436364 5468.8716938 2436.79087932 4770.63129255 4219.39605452 9449.15934947 18370.9280856 13830.1303764 7150.98303269 43324.9981862 34505.9034263 48798.2565889 24802.329667 22768.6085967 98718.1546444 85107.9307569 132985.940866 167676.336686 194052.035088 125622.336438 179949.351352 215318.178636 254311.391534 64650.2069475 110057.68408 118533.894332 163437.852679 39716.1239881 77183.6367045 71867.5629036 113019.499656 118014.570907 166034.220725 203407.916395 208979.640416 188099.5478 129230.904416 12795.2713185 9836.50438887 284972.147545 189940.543787 272418.131194 233274.805152 12663.9530551 39857.0637348 61639.0886485 26669.6792293 -82211.8960648 -101236.987847 -135336.489791 -175898.487505 -177310.160464 -40308.0178174 -78380.0905575 -73764.1042664 -113587.32694 -119166.304204 -161500.148178 -200787.405647 -224915.35416 -126254.511701 -179052.226849 -212577.302827 -254738.24651 -65120.2142723 -108722.23637 -122088.621265 -149970.199154 -13330.5807535 -10464.8650279 -129878.278533 -188109.767811 -13067.9381579 -40599.8272345 -62171.092146 -26842.8316217 -285311.210677 -189589.878316 -273368.354753 -234073.244362 -99391.4324129 -85663.9177002 -133757.972271 -168472.989133 -194975.807862 -126967.308942 -181444.629491 -216076.865159 -255245.933991 -64961.5743644 -110616.79008 -118943.285773 -164152.354369 -39746.7108936 -77410.0732498 -71755.2966211 -113309.345984 -118961.415906 -166896.193632 -204113.08603 -209779.15558 -129904.187773 -188202.6678 -12517.1086625 -9418.55758634 -286123.713432 -190263.511051 -273713.979453 -232071.280589 -12085.2457313 -39723.5582318 -61403.8805004 -26129.1031425 82203.8029024 117956.345399 161049.272734 200442.321258 224764.895229 39515.3001659 78042.9297896 73911.4573728 113401.48116 101377.708838 135264.217082 175343.358463 176893.347775 63763.2400575 109000.341987 121811.375684 149671.216174 126837.178794 178825.905387 215148.69741 254256.57995 13638.7979228 10999.9993709 187697.404197 131922.11865 13677.382355 40483.9470279 62482.031491 27633.9412138 285127.562693 189918.46034 272552.40251 233460.605751 181076.641966 190401.195632 217461.62547 76765.9014426 95145.006014 135561.09653 243691.094949 238587.979737 248389.793566 15933.3276104 42282.7185605 217620.319986 144203.668863 -136298.739162 -98973.1639907 -78772.3721784 -241755.306396 -213682.769685 -218653.804617 -16065.8950105 -42669.7161459 -176411.334515 -148638.609606 -249535.006593 -183818.213877 -240885.717379 -244816.889526 -76704.342034 -95219.163209 -136027.591163 -181872.606029 -191116.17091 -218204.632537 -144803.075468 -15092.512139 -42238.1943976 -218233.76 -244335.284463 -240987.699466 248068.303235 238424.508852 245195.73859 17283.1515938 210634.430284 218223.193337 79224.4273699 44164.5305237 175869.535213 150927.441132 136798.466685 186578.618301 98303.877923 188952.162864 14545.07016 30284.434725 42636.0428642 190979.316918 218815.468083 147264.808713 147011.916017 156129.887493 180810.376834 150968.694841 184562.971214 178397.533712 242770.260658 119830.891461 91176.0654677 106789.642072 110870.97303 73523.9007262 31603.4886928 30456.9361981 43325.2591732 -189463.340274 -14356.8169436 -191295.358853 -218606.370657 -29698.9941008 -41019.1392025 -123011.89909 -91630.4828515 -109024.544669 -112559.971853 -32081.7658142 -73912.5506691 -30341.6129855 -44450.1989034 -147011.613217 -150051.603289 -147883.344406 -181392.429324 -184913.926928 -152891.927974 -178392.683115 -243228.23409 -189475.536469 -13144.5058025 -32178.9392673 -41598.3066377 -191671.989667 -213185.102219 -147869.902047 -147341.087038 -151152.164279 -181646.288823 -184799.948917 -150975.821736 -179437.953084 -242556.271906 -120453.733416 -91529.8252902 -106579.268128 -111066.597204 -73426.7150041 -31168.9542203 -29709.0581457 -43325.9643242 189192.06573 18893.376861 191528.560927 219418.173917 28663.329654 38422.9184316 120320.74122 112899.871039 143181.933758 145666.73595 153652.92771 179394.60139 152006.527363 185563.902928 177977.605446 242935.192081 34326.3132307 69839.0317832 111067.888896 85502.6042426 67277.2390679 242190.587949 264942.008714 189595.645905 238475.369067 26299.2132807 165258.59143 112262.547795 -173046.16821 -110520.219712 -248853.695665 -198151.922117 -236994.059051 -273932.39478 -26507.4509434 -63887.3035658 -20976.7856512 -66578.8115377 -242122.081635 -263325.516691 -247200.28861 -214277.756779 -164447.479335 -113512.921358 159284.809229 240967.594602 205455.655675 156023.993467 237365.876785 268384.528643 45156.8965317 74554.3724231 127419.996717 89311.2231198 76231.1245496 42734.0793873 -197337.0413 -103781.673651 -137727.396085 -170849.996658 33281.0292132 10738.0489868 -22646.029624 -116634.834597 -55866.2398794 87165.8890823 121687.560584 140292.367275 -265851.533694 -224042.1751 -239821.060474 -89067.753624 -127846.529017 -72761.4576092 -87115.9726547 192533.114972 100189.014703 169394.772859 130213.15674 -134337.628971 -116787.901101 265669.584508 227321.705887 241515.248795 -39219.4338257 -31545.0406802 -7915.1226714 23968.9520395 114481.157897 63260.2446908 -124850.956941 -88475.4960019 -74731.6117438 -41755.2663925 200343.45936 105539.762522 139941.982551 172462.499458 -32980.9360513 -10061.6449602 25442.1122429 118597.750857 58364.6287986 -89128.6566038 -137586.660648 -116715.788675 266134.789312 227264.527832 238439.308501 80200.6286515 127745.632183 74493.8998875 86748.8628685 -189744.624234 -97946.6804004 -167430.812896 -128086.556231 122047.519334 140667.094995 -265523.626239 -224236.899049 -241412.49777 40027.1560065 21071.2458451 9332.27067791 -21529.3829069 -112182.372126 -60996.5858813 -96614.0872659 -50145.5525701 -194036.535309 -251508.058084 -188010.496525 -89793.9744451 -49897.4050091 55211.6093915 124993.117907 206273.428295 116624.777928 52814.8731765 246888.259694 234608.244896 97731.8920173 52880.7657983 188441.608618 203830.438237 255817.647865 92499.6570184 52210.3047848 -122009.026891 -52441.5940271 -203670.560387 -114055.988243 -50307.389224 -232470.855956 -245707.76848</DataArray>