<?xml version="1.0" ?>
<VTKFile byte_order="LittleEndian" type="PolyData" version="0.1">
  <PolyData>
    <Piece NumberOfPoints="460" NumberOfPolys="916">
      <Points>
        <DataArray NumberOfComponents="3" format="ascii" type="Float32">0.0 0.0 -1.10000001996e-07 1.92000001675e-07 0.0 -1.10000001996e-07 2.41999998707e-07 0.0 -5.9999997859e-08 2.41999998707e-07 0.0 5.9999997859e-08 1.92000001675e-07 0.0 1.10000001996e-07 1.70999996385e-07 0.0 1.10000001996e-07 1.20999999353e-07 0.0 5.9999997859e-08 1.20999999353e-07 0.0 5.00000005843e-08 7.10000023219e-08 0.0 0.0 0.0 0.0 0.0 1.175622131e-23 1.92000001675e-07 -1.10000001996e-07 -1.92000001675e-07 2.35124426199e-23 -1.10000001996e-07 -3.52686615633e-23 -1.92000001675e-07 -1.10000001996e-07 1.48177376295e-23 2.41999998707e-07 -5.9999997859e-08 -2.41999998707e-07 2.96354752589e-23 -5.9999997859e-08 -4.44532113106e-23 -2.41999998707e-07 -5.9999997859e-08 1.48177376295e-23 2.41999998707e-07 5.9999997859e-08 -2.41999998707e-07 2.96354752589e-23 5.9999997859e-08 -4.44532113106e-23 -2.41999998707e-07 5.9999997859e-08 1.175622131e-23 1.92000001675e-07 1.10000001996e-07 -1.92000001675e-07 2.35124426199e-23 1.10000001996e-07 -3.52686615633e-23 -1.92000001675e-07 1.10000001996e-07 1.04703843453e-23 1.70999996385e-07 1.10000001996e-07 -1.70999996385e-07 2.09407686907e-23 1.10000001996e-07 -3.14111538249e-23 -1.70999996385e-07 1.10000001996e-07 7.40886881473e-24 1.20999999353e-07 5.9999997859e-08 -1.20999999353e-07 1.48177376295e-23 5.9999997859e-08 -2.22266056553e-23 -1.20999999353e-07 5.9999997859e-08 7.40886881473e-24 1.20999999353e-07 5.00000005843e-08 -1.20999999353e-07 1.48177376295e-23 5.00000005843e-08 -2.22266056553e-23 -1.20999999353e-07 5.00000005843e-08 4.34735249524e-24 7.10000023219e-08 0.0 -7.10000023219e-08 8.69470499049e-24 0.0 -1.30420574857e-23 -7.10000023219e-08 0.0 4.80000004188e-08 0.0 -1.10000001996e-07 9.60000008376e-08 0.0 -1.10000001996e-07 1.43999997704e-07 0.0 -1.10000001996e-07 2.27355343441e-07 0.0 -9.53553396243e-08 2.41999998707e-07 0.0 -1.99999998785e-08 2.41999998707e-07 0.0 1.99999998785e-08 2.27355343441e-07 0.0 9.53553396243e-08 1.3564465462e-07 0.0 9.53553396243e-08 1.06355336982e-07 0.0 1.46446605953e-08 3.55000011609e-08 0.0 0.0 2.93905532749e-24 4.80000004188e-08 -1.10000001996e-07 5.87811065499e-24 9.60000008376e-08 -1.10000001996e-07 8.81716539083e-24 1.43999997704e-07 -1.10000001996e-07 1.87186159906e-07 4.27240181011e-08 -1.10000001996e-07 1.72986020175e-07 8.33056787997e-08 -1.10000001996e-07 1.5011164578e-07 1.19710037438e-07 -1.10000001996e-07 1.19710037438e-07 1.5011164578e-07 -1.10000001996e-07 8.33056787997e-08 1.72986020175e-07 -1.10000001996e-07 4.27240181011e-08 1.87186159906e-07 -1.10000001996e-07 -4.80000004188e-08 5.87811065499e-24 -1.10000001996e-07 -9.60000008376e-08 1.175622131e-23 -1.10000001996e-07 -1.43999997704e-07 1.76343307817e-23 -1.10000001996e-07 -4.27240181011e-08 1.87186159906e-07 -1.10000001996e-07 -8.33056787997e-08 1.72986020175e-07 -1.10000001996e-07 -1.19710037438e-07 1.5011164578e-07 -1.10000001996e-07 -1.5011164578e-07 1.19710037438e-07 -1.10000001996e-07 -1.72986020175e-07 8.33056787997e-08 -1.10000001996e-07 -1.87186159906e-07 4.27240181011e-08 -1.10000001996e-07 -8.81716539083e-24 -4.80000004188e-08 -1.10000001996e-07 -1.76343307817e-23 -9.60000008376e-08 -1.10000001996e-07 -2.64514969614e-23 -1.43999997704e-07 -1.10000001996e-07 -1.87186159906e-07 -4.27240181011e-08 -1.10000001996e-07 -1.72986020175e-07 -8.33056787997e-08 -1.10000001996e-07 -1.5011164578e-07 -1.19710037438e-07 -1.10000001996e-07 -1.19710037438e-07 -1.5011164578e-07 -1.10000001996e-07 -8.33056787997e-08 -1.72986020175e-07 -1.10000001996e-07 -4.27240181011e-08 -1.87186159906e-07 -1.10000001996e-07 4.27240181011e-08 -1.87186159906e-07 -1.10000001996e-07 8.33056787997e-08 -1.72986020175e-07 -1.10000001996e-07 1.19710037438e-07 -1.5011164578e-07 -1.10000001996e-07 1.5011164578e-07 -1.19710037438e-07 -1.10000001996e-07 1.72986020175e-07 -8.33056787997e-08 -1.10000001996e-07 1.87186159906e-07 -4.27240181011e-08 -1.10000001996e-07 1.39210394385e-23 2.27355343441e-07 -9.53553396243e-08 2.37350036514e-07 4.72118593109e-08 -5.9999997859e-08 2.23578851433e-07 9.26093903786e-08 -5.9999997859e-08 2.01215641482e-07 1.34448001177e-07 -5.9999997859e-08 1.71119836523e-07 1.71119836523e-07 -5.9999997859e-08 1.34448001177e-07 2.01215641482e-07 -5.9999997859e-08 9.26093903786e-08 2.23578851433e-07 -5.9999997859e-08 4.72118593109e-08 2.37350036514e-07 -5.9999997859e-08 -2.27355343441e-07 2.7842078877e-23 -9.53553396243e-08 -4.72118593109e-08 2.37350036514e-07 -5.9999997859e-08 -9.26093903786e-08 2.23578851433e-07 -5.9999997859e-08 -1.34448001177e-07 2.01215641482e-07 -5.9999997859e-08 -1.71119836523e-07 1.71119836523e-07 -5.9999997859e-08 -2.01215641482e-07 1.34448001177e-07 -5.9999997859e-08 -2.23578851433e-07 9.26093903786e-08 -5.9999997859e-08 -2.37350036514e-07 4.72118593109e-08 -5.9999997859e-08 -4.17631198932e-23 -2.27355343441e-07 -9.53553396243e-08 -2.37350036514e-07 -4.72118593109e-08 -5.9999997859e-08 -2.23578851433e-07 -9.26093903786e-08 -5.9999997859e-08 -2.01215641482e-07 -1.34448001177e-07 -5.9999997859e-08 -1.71119836523e-07 -1.71119836523e-07 -5.9999997859e-08 -1.34448001177e-07 -2.01215641482e-07 -5.9999997859e-08 -9.26093903786e-08 -2.23578851433e-07 -5.9999997859e-08 -4.72118593109e-08 -2.37350036514e-07 -5.9999997859e-08 4.72118593109e-08 -2.37350036514e-07 -5.9999997859e-08 9.26093903786e-08 -2.23578851433e-07 -5.9999997859e-08 1.34448001177e-07 -2.01215641482e-07 -5.9999997859e-08 1.71119836523e-07 -1.71119836523e-07 -5.9999997859e-08 2.01215641482e-07 -1.34448001177e-07 -5.9999997859e-08 2.23578851433e-07 -9.26093903786e-08 -5.9999997859e-08 2.37350036514e-07 -4.72118593109e-08 -5.9999997859e-08 1.48177376295e-23 2.41999998707e-07 -1.99999998785e-08 1.48177376295e-23 2.41999998707e-07 1.99999998785e-08 2.37350036514e-07 4.72118593109e-08 5.9999997859e-08 2.23578851433e-07 9.26093903786e-08 5.9999997859e-08 2.01215641482e-07 1.34448001177e-07 5.9999997859e-08 1.71119836523e-07 1.71119836523e-07 5.9999997859e-08 1.34448001177e-07 2.01215641482e-07 5.9999997859e-08 9.26093903786e-08 2.23578851433e-07 5.9999997859e-08 4.72118593109e-08 2.37350036514e-07 5.9999997859e-08 -2.41999998707e-07 2.96354752589e-23 -1.99999998785e-08 -2.41999998707e-07 2.96354752589e-23 1.99999998785e-08 -4.72118593109e-08 2.37350036514e-07 5.9999997859e-08 -9.26093903786e-08 2.23578851433e-07 5.9999997859e-08 -1.34448001177e-07 2.01215641482e-07 5.9999997859e-08 -1.71119836523e-07 1.71119836523e-07 5.9999997859e-08 -2.01215641482e-07 1.34448001177e-07 5.9999997859e-08 -2.23578851433e-07 9.26093903786e-08 5.9999997859e-08 -2.37350036514e-07 4.72118593109e-08 5.9999997859e-08 -4.44532113106e-23 -2.41999998707e-07 -1.99999998785e-08 -4.44532113106e-23 -2.41999998707e-07 1.99999998785e-08 -2.37350036514e-07 -4.72118593109e-08 5.9999997859e-08 -2.23578851433e-07 -9.26093903786e-08 5.9999997859e-08 -2.01215641482e-07 -1.34448001177e-07 5.9999997859e-08 -1.71119836523e-07 -1.71119836523e-07 5.9999997859e-08 -1.34448001177e-07 -2.01215641482e-07 5.9999997859e-08 -9.26093903786e-08 -2.23578851433e-07 5.9999997859e-08 -4.72118593109e-08 -2.37350036514e-07 5.9999997859e-08 4.72118593109e-08 -2.37350036514e-07 5.9999997859e-08 9.26093903786e-08 -2.23578851433e-07 5.9999997859e-08 1.34448001177e-07 -2.01215641482e-07 5.9999997859e-08 1.71119836523e-07 -1.71119836523e-07 5.9999997859e-08 2.01215641482e-07 -1.34448001177e-07 5.9999997859e-08 2.23578851433e-07 -9.26093903786e-08 5.9999997859e-08 2.37350036514e-07 -4.72118593109e-08 5.9999997859e-08 1.39210394385e-23 2.27355343441e-07 9.53553396243e-08 1.87186159906e-07 4.27240181011e-08 1.10000001996e-07 1.72986020175e-07 8.33056787997e-08 1.10000001996e-07 1.5011164578e-07 1.19710037438e-07 1.10000001996e-07 1.19710037438e-07 1.5011164578e-07 1.10000001996e-07 8.33056787997e-08 1.72986020175e-07 1.10000001996e-07 4.27240181011e-08 1.87186159906e-07 1.10000001996e-07 -2.27355343441e-07 2.7842078877e-23 9.53553396243e-08 -4.27240181011e-08 1.87186159906e-07 1.10000001996e-07 -8.33056787997e-08 1.72986020175e-07 1.10000001996e-07 -1.19710037438e-07 1.5011164578e-07 1.10000001996e-07 -1.5011164578e-07 1.19710037438e-07 1.10000001996e-07 -1.72986020175e-07 8.33056787997e-08 1.10000001996e-07 -1.87186159906e-07 4.27240181011e-08 1.10000001996e-07 -4.17631198932e-23 -2.27355343441e-07 9.53553396243e-08 -1.87186159906e-07 -4.27240181011e-08 1.10000001996e-07 -1.72986020175e-07 -8.33056787997e-08 1.10000001996e-07 -1.5011164578e-07 -1.19710037438e-07 1.10000001996e-07 -1.19710037438e-07 -1.5011164578e-07 1.10000001996e-07 -8.33056787997e-08 -1.72986020175e-07 1.10000001996e-07 -4.27240181011e-08 -1.87186159906e-07 1.10000001996e-07 4.27240181011e-08 -1.87186159906e-07 1.10000001996e-07 8.33056787997e-08 -1.72986020175e-07 1.10000001996e-07 1.19710037438e-07 -1.5011164578e-07 1.10000001996e-07 1.5011164578e-07 -1.19710037438e-07 1.10000001996e-07 1.72986020175e-07 -8.33056787997e-08 1.10000001996e-07 1.87186159906e-07 -4.27240181011e-08 1.10000001996e-07 1.65173318578e-07 4.42580549986e-08 1.10000001996e-07 1.48090350649e-07 8.54999981925e-08 1.10000001996e-07 1.20915260027e-07 1.20915260027e-07 1.10000001996e-07 8.54999981925e-08 1.48090350649e-07 1.10000001996e-07 4.42580549986e-08 1.65173318578e-07 1.10000001996e-07 -4.42580549986e-08 1.65173318578e-07 1.10000001996e-07 -8.54999981925e-08 1.48090350649e-07 1.10000001996e-07 -1.20915260027e-07 1.20915260027e-07 1.10000001996e-07 -1.48090350649e-07 8.54999981925e-08 1.10000001996e-07 -1.65173318578e-07 4.42580549986e-08 1.10000001996e-07 -1.65173318578e-07 -4.42580549986e-08 1.10000001996e-07 -1.48090350649e-07 -8.54999981925e-08 1.10000001996e-07 -1.20915260027e-07 -1.20915260027e-07 1.10000001996e-07 -8.54999981925e-08 -1.48090350649e-07 1.10000001996e-07 -4.42580549986e-08 -1.65173318578e-07 1.10000001996e-07 4.42580549986e-08 -1.65173318578e-07 1.10000001996e-07 8.54999
[...]
      <CellData>
        <DataArray Name="rho_e_real" format="ascii" type="Float32">27386.3513857 24738.2704797 29897.8631317 27628.7232134 23951.4304066 21507.6374144 18805.5551377 3974.64995491 16734.2210665 30443.5009041 29892.7945117 21614.513672 32761.1474247 33126.4505512 34375.2802182 34110.2176395 6479.92576397 3201.75730869 33101.3936427 31665.0727714 21580.491412 27494.0558664 26226.2309188 14854.2132363 11712.8947113 9357.08130977 3925.06516263 16607.6855049 4242.73889602 8555.50014991 18047.1049252 22972.7653945 16566.0053068 8166.28234433 14636.9954596 -20172.9140511 -24523.1062254 -17864.8289501 -19779.1082087 -25148.7003257 -26029.5847016 -29344.5687745 -32754.3491361 -30364.6323621 -3599.37884302 -16606.7572255 -26060.6069291 -11373.4108256 -6264.14112147 -1898.12802461 -4307.78255486 -34076.1516499 -34654.7761048 -10620.5762647 -12765.389296 -4893.00670202 -9384.3070307 -16498.1033553 -30213.0430824 -31996.7292186 -3066.18604867 -7782.51369074 -8366.69390495 -22196.9016458 -16223.872302 -21441.0077526 -21102.2067545 -16417.0109943 -28775.5728512 -27844.6357707 -27579.5277251 -24894.4416445 -30070.2549744 -27804.1282074 -24141.4602946 -21666.4812779 -18939.7283581 -4124.96558563 -16912.4870537 -30640.1757764 -30106.7179319 -21811.3353799 -32961.0035384 -33308.3599099 -34510.9420196 -34229.7403396 -6595.24312538 -3273.54415252 -33254.0234512 -31836.0464532 -21807.1358632 -27730.3779015 -26462.3133442 -14994.9053318 -11817.5850121 -9577.68246763 -4144.72620579 -16845.0254464 -4448.97975929 -8782.23556151 -18278.1184296 -23199.357509 -16806.970573 -8354.19710306 -14833.5113063 20120.3641086 24527.1966226 17845.5583541 19748.421069 25094.3551294 26005.4144736 29354.9457908 32602.5736548 30285.0265925 3464.65126791 16531.2572164 25994.6732915 11295.1438256 6170.08615028 1821.75460807 4268.80143898 33980.9481539 34580.5748303 10588.1559089 12718.9432554 4719.35917424 9246.99767007 16395.6914729 30163.9367292 31977.9130516 7579.8488388 2863.49288133 8195.30746911 22013.457934 16050.5437677 21325.0958161 21009.6410356 16275.2495906 28631.6087797 27741.2171369 -48368.1449791 3715.06225203 -37353.0159984 -41224.1091539 -6373.39597695 3582.16154334 -56967.210954 -51920.7911477 -7343.8550715 3588.05836996 -27735.6258846 -30098.5837467 -3933.01140836 1608.46146556 -17394.2054257 -21031.7592889 -2104.71726854 5391.44832845 -49948.8636578 -48621.757504 -6583.27441384 -55114.3189508 -58063.0988518 -1328.51502413 -5391.63796947 -5158.97981788 -54266.6386263 -7570.92291153 6010.07525943 -589.513710079 -10762.6653545 -1981.57824395 1375.65341067 40731.1673839 -2535.37031795 46280.7216548 42159.4622404 5413.54421645 343.886013757 18270.5521712 22644.81149 3459.8608953 -4348.30583913 52847.5228514 45137.5578152 6099.53204198 -3441.34993117 57998.7115828 51508.7850965 7781.54404403 -2519.81480127 27425.7750625 33399.1793283 7030.50544448 2696.38154422 6499.99547266 55223.8699768 58173.3881691 1701.53927712 12201.8752034 3443.4456715 -325.551336782 5289.01761038 54298.1262941 8073.3317965 -5917.85166276 48182.2871096 -3865.49905412 37204.5026888 41062.1322676 6217.08284922 -3702.91251282 56632.4792068 51841.6532623 7197.45801437 -3715.3879824 27591.3364745 29941.2895241 3788.84775914 -1713.52793109 17259.3000344 20886.6763155 1981.67782322 -5540.61459928 49639.7110332 48460.3991126 6424.59787904 55152.5079979 57982.3430973 1232.35545781 5279.24164242 5109.91349646 54232.609587 7477.71359515 -6085.61365725 533.72925267 10630.4842706 1889.81063001 -1451.1328417 -40702.8469434 4410.04599332 -52052.4373216 -45074.3337247 -6030.78457854 -354.271075733 -18808.2734904 -22421.4382298 -3515.17793741 2580.35557959 -46019.7077138 -42119.797071 -5375.17940986 2523.59300637 -28272.3161014 -33052.8651726 -7032.29724434 3505.85913737 -57602.9179465 -51324.6507379 -7710.85137942 -2813.55753319 -6538.47674715 -55163.5607801 -58215.9282837 -1743.93318883 -12318.1068468 -3474.80076737 296.275839946 -5308.30560045 -54324.7768259 -8028.29374238 5901.67429198 -65779.6469844 -59080.8891664 -20056.1587697 -18695.029903 -68734.5307647 -63352.2074426 -63040.8611668 -54569.3669894 -60947.1996984 -73700.801416 -66015.9628857 -59437.1546439 -56463.5097947 -54959.301051 -49819.2991415 -50550.6033328 -48370.2458816 -63820.9124602 -56594.9041438 -54291.9490025 -54783.5930627 -70533.8563311 -62883.1952724 -53740.9206123 -49308.077907 -44803.0077543 -48445.0740973 -66528.3620094 -2013.60246265 -33494.1832231 -32651.8380155 -35180.8393543 -40140.9753934 -27646.926316 -50.7560617647 -7709.96503976 -5978.73863405 -74351.5213918 -77639.5933374 -7556.72860648 -6053.90275078 -1535.23022311 -14316.1446873 -10084.3865499 -11999.3438487 -8776.15999073 -69734.9209133 -68023.3965835 -74050.1203559 -47093.4821657 -39589.632333 -14442.2319987 -18468.4636657 -23801.0892742 -60120.8694026 -76763.9676361 -68836.7666877 -68629.381062 36768.2170908 33281.6427968 34338.5092863 29631.0223266 22468.0149225 20378.2262788 74492.2840535 20989.7030454 17565.7430703 69276.0662811 48410.7431106 43717.6220361 44989.3894838 39877.1523924 59551.2049082 56571.9396352 43050.0237691 36367.5305497 36200.0087475 35494.3470143 29656.1019831 26111.5462093 24933.8698485 25858.0125363 53249.2027232 44815.5912548 45870.1007666 43677.7116074 2538.09692077 67415.4839538 64081.0297198 51094.3932529 67245.4456982 60923.5544154 67900.8267957 66119.996794 75589.7711701 62767.6893983 77701.4558984 69676.1648832 74837.152055 74815.121779 67829.1333804 64094.9284888 63346.0522302 50858.4440699 49193.4330388 67537.0509915 60544.6202091 56032.8604998 371.644187127 9821.19211851 8993.50168516 9485.10322222 9351.48456521 2371.84253865 13045.7219973 12565.7148443 16273.2243809 13595.5661626 68322.496141 62856.6826762 63536.2701743 55639.7054422 73557.6177764 68066.7681167 19913.0763647 68741.2955954 58467.3863364 18538.1779837 58921.4644678 55569.9379634 54772.8917511 50306.8867891 50255.0636303 48059.8587887 64067.1809997 55630.3476019 52503.3087752 54460.5235209 71107.8460109 62103.4678848 58616.1217438 61466.6519975 53597.5707319 48738.2898163 44536.1144092 47985.7511996 65628.6236606 2234.88365321 33299.0362933 32525.4844395 35008.1544059 39944.0191135 27469.5625271 -422.428424662 7548.98775225 5836.66252165 7427.24848037 5969.17053118 1513.9560074 14173.3364368 9931.00434831 11851.4614909 8617.14138394 46916.9734259 39291.3164571 14285.1745232 18299.6397535 23641.8829168 65757.4291694 75724.8528005 60173.0859551 78099.8933098 70136.9516697 74658.610039 63878.221082 64666.3948241 75715.7575595 68297.2268572 -73753.3667834 -67616.9018258 -69443.4073954 -64002.919741 -23507.6413543 -21678.2311596 -23952.1497191 -20139.6995156 -35414.5883709 -30023.9173054 -36890.8752362 -33922.5643536 -44858.3904118 -40252.1371566 -48506.6150973 -44340.7550981 -56188.2695377 -60196.5868028 -42569.9724911 -37086.952569 -35121.2643028 -36587.9631252 -29558.5582345 -27853.8688256 -25211.468196 -27994.4241242 -53682.4798583 -44094.9086228 -45587.5215696 -43768.8595538 -61853.063397 -52140.0392925 -69528.9173688 -57343.9836932 -2733.11108062 -64333.8259984 -70956.3689148 -60780.7193164 -13545.5828568 -49984.031991 -55196.19832 -52278.3427508 -24.2384963035 -13576.3989525 -7801.22953639 -7873.58642336 -16162.3833491 -14968.5503828 -10334.1740707 -9643.45101835 -2497.00088132 -62019.3884008 -65343.5004712 -61201.7296142 -65120.3898028 -74626.9111926 -77455.500751 -73759.4210898 -68143.4737572 -68450.2352607 -76443.9976057 -62649.8694603 -88382.6852628 -91435.3872175 -95899.596399 -95559.6794042 -113344.820155 -120611.802387 -131035.273127 -46987.5606931 -67140.8801437 -65328.7230686 -84927.1235302 -28986.6349335 -44005.8868375 -37375.0428729 -63276.8520482 -86046.3056839 -100275.344129 -112673.786435 -115322.711017 -117818.335407 -97395.8362793 -9802.90257869 -3444.80339311 -148439.793739 -117407.155079 -142673.58383 -129236.68469 -5227.21100424 -24994.8679614 -27971.3294238 -14263.5747584 61760.5753882 76353.1651606 80020.9748836 99656.0605392 100281.734266 29733.1280594 45684.0512579 40489.8276115 61833.878825 88092.6258915 100612.541379 112443.975212 117745.729887 94904.9582311 113628.417599 120523.240281 131380.309847 46904.3389146 72641.2968153 67449.7707708 72485.9679633 10571.7166624 4556.802595 97487.2283806 117721.757606 4583.13027959 26280.3105473 30413.8978107 12536.6516613 148816.222908 118210.396569 144011.546762 129557.945428 76236.026646 62509.1913104 88220.0196195 91310.1348316 95764.1236879 93855.8153085 113554.446035 120630.617177 130876.077434 46839.0612264 66981.6254084 65188.1046578 84796.4099688 28819.55856 43835.2187727 37147.6260296 63098.0279024 85871.8962186 100162.70164 112527.88498 115183.937817 97276.1470473 117790.170653 9593.94330804 3203.2845781 149243.764192 117922.336529 143036.587553 128767.721131 4949.82180235 24818.7677827 27712.8867806 13940.9254983 -61437.5010729 -87932.0125257 -100257.041755 -112177.182144 -117534.934738 -29535.4639242 -45122.729913 -40006.1158326 -61585.4270254 -75938.5850696 -79706.3374148 -99366.685402 -100038.336175 -46962.2219874 -71522.3297625 -67202.0679367 -72136.5325902 -94776.297723 -113188.996028 -121077.347796 -131069.747775 -11181.086948 -4724.95335124 -117740.127325 -98263.4755513 -4861.56033512 -26790.5483046 -30558.9701439 -12801.9912995 -148544.005266 -118115.574028 -142854.49215 -129353.684088 -105112.27154 -111768.996898 -123894.417002 -44228.1680773 -55637.829778 -77992.057031 -140313.788969 -140916.94941 -143584.711707 -8555.44231155 -24720.1695785 -129401.065579 -86381.5032665 77497.790082 59085.8264643 46122.9143028 139090.602193 128921.147632 125883.170241 12919.0246162 27252.6853507 101447.499261 86883.5590864 143605.249153 107991.046787 141936.38916 140703.653706 44048.4156788 55431.8269776 77860.8421806 105044.782284 111675.899288 123788.13325 86303.7561868 7844.33202233 24675.9952421 129255.21625 140526.39808 141941.400619 -143419.455144 -140820.485471 -142464.371682 -13958.0973926 -127832.166511 -125682.181221 -44966.0674478 -27447.361121 -101442.240572 -88216.3270126 -77797.8193136 -109383.481157 -55622.021758 -119047.385123 -9091.05449802 -20304.7782749 -10536.6517387 -60941.3513025 -48733.5583229 -94294.7891809 -103350.406732 -46782.4726075 -69863.1410222 -108980.590495 -114356.216293 -64557.0851394 -108660.687368 -73746.1333434 -63143.7467744 -29969.2443494 -49066.0354574 -48777.9570223 -21173.4200437 -1457.10901754 -23829.3533371 119190.189783 9341.49844449 59887.3669721 48826.8146249 20645.3271096 10160.7124118 75783.5106289 62601.1568083 28836.3194012 49327.1642379 22216.9435072 46981.5900562 1062.62921207 24630.2607894 93607.454436 104612.816601 45933.7498765 69253.4905271 112370.538905 110172.678261 64321.1164743 108321.015941 119461.570781 7936.84303517 21608.5159719 10327.7187906 60575.5092633 46980.8954428 94208.6371552 103230.616442 46209.6964215 69785.2175372 114232.327882 109117.155195 64340.2475676 108869.858186 73694.2775049 63163.9069633 30964.0431325 49077.9860176 48632.8346342 20682.5849006 1016.51089796 23592.9574409 -119032.480181 -14062.1920987 -60644.5408807 -48125.2507012 -14788.4701245 -9191.56028787 -73747.2247694 -27429.8247707 -91331.1853849 -103063.281959 -44754.932398 -66868.2524045 -109817.667853 -112845.349254 -63950.7869981 -108275.984675 -20798.9258648 -45858.8525361 -44363.0611783 -58786.888862 3069.97636836 -6125.14386955 -18881.1154069 -19845.3630726 -23412.3483871 -8708.7721109 -5827.22839351 -11823.5782715 7824.09756272 11448.819597 9093.30350709 20926.6473634 24809.2675867 21593.8933878 8499.17358574 -3765.48313017 7013.95501069 -1944.8177563 19711.0480121 23730.5001244 27581.0038468 13961.8838583 3789.07770115 12408.3164936 -20818.4919236 -9620.96494384 -25608.3125102 -14544.2653655 -23491.5459433 -22733.7985684 -10197.3221931 -3321.38589159 -7682.49448226 -6487.63618399 2062.82265187 904.002889644 -9835.91632088 -1639.20573025 -8825.9626954 -1432.41078096 -3284.13678044 -302.748719686 -1619.57947569 -5755.56231599 -1727.95201299 3193.02531694 4313.14924972 -8430.80204863 -12831.3185188 -10310.3774193 -7273.87301046 6116.74456342 7051.3485071 -2631.22129082 -2872.83917811 9841.01807156 1522.57005677 1762.53381881 8376.80491213 8405.77781425 -3580.83214144 13206.3921479 10918.4068844 7161.8259675 -1040.74487335 3088.82846761 130.584446416 1308.41017458 5282.13510912 1367.22117221 6942.33676401 6620.90799427 -2449.63712376 -96.535673495 10554.0291413 2294.75034518 9242.86118512 1682.27365974 3932.61650289 1027.1265555 2126.83423305 6238.05341336 2196.21510025 -1756.38026894 9720.85472256 -3624.20134618 13687.3283331 11341.4310491 7778.05725798 -3174.38497914 -7212.64061955 2384.1165091 2910.92862131 -9778.60946274 -1138.23764945 -1757.66387911 -8285.46851587 4695.62632945 -8501.62185626 -12456.604964 -10760.6720314 -7329.90286757 2121.05668606 832.406851347 483.205934537 -604.832825938 -4897.10580668 -764.73543262 -6864.57337402 -3668.10329131 -14440.8247343 -19502.4362127 -14535.3561646 -5703.05746628 -3778.50767455 4230.68759525 9489.29411427 16105.0658996 9075.57052357 4278.65538414 18749.1448457 18173.7984931 7287.49508798 4133.63509713 14851.4106875 15799.2772452 19925.3323405 6156.95302738 4221.73174387 -9078.98576547 -3802.7555374 -15993.2490264 -8639.83775494 -3777.08030638 -17667.2744905 -18590.5167922</DataArray>