<?xml version="1.0" ?>
<VTKFile byte_order="LittleEndian" type="PolyData" version="0.1">
  <PolyData>
    <Piece NumberOfPoints="460" NumberOfPolys="916">
      <Points>
        <DataArray NumberOfComponents="3" format="ascii" type="Float32">0.0 0.0 -1.10000001996e-07 1.92000001675e-07 0.0 -1.10000001996e-07 2.41999998707e-07 0.0 -5.9999997859e-08 2.41999998707e-07 0.0 5.9999997859e-08 1.92000001675e-07 0.0 1.10000001996e-07 1.70999996385e-07 0.0 1.10000001996e-07 1.20999999353e-07 0.0 5.9999997859e-08 1.20999999353e-07 0.0 5.00000005843e-08 7.10000023219e-08 0.0 0.0 0.0 0.0 0.0 1.175622131e-23 1.92000001675e-07 -1.10000001996e-07 -1.92000001675e-07 2.35124426199e-23 -1.10000001996e-07 -3.52686615633e-23 -1.92000001675e-07 -1.10000001996e-07 1.48177376295e-23 2.41999998707e-07 -5.9999997859e-08 -2.41999998707e-07 2.96354752589e-23 -5.9999997859e-08 -4.44532113106e-23 -2.41999998707e-07 -5.9999997859e-08 1.48177376295e-23 2.41999998707e-07 5.9999997859e-08 -2.41999998707e-07 2.96354752589e-23 5.9999997859e-08 -4.44532113106e-23 -2.41999998707e-07 5.9999997859e-08 1.175622131e-23 1.92000001675e-07 1.10000001996e-07 -1.92000001675e-07 2.35124426199e-23 1.10000001996e-07 -3.52686615633e-23 -1.92000001675e-07 1.10000001996e-07 1.04703843453e-23 1.70999996385e-07 1.10000001996e-07 -1.70999996385e-07 2.09407686907e-23 1.10000001996e-07 -3.14111538249e-23 -1.70999996385e-07 1.10000001996e-07 7.40886881473e-24 1.20999999353e-07 5.9999997859e-08 -1.20999999353e-07 1.48177376295e-23 5.9999997859e-08 -2.22266056553e-23 -1.20999999353e-07 5.9999997859e-08 7.40886881473e-24 1.20999999353e-07 5.00000005843e-08 -1.20999999353e-07 1.48177376295e-23 5.00000005843e-08 -2.22266056553e-23 -1.20999999353e-07 5.00000005843e-08 4.34735249524e-24 7.10000023219e-08 0.0 -7.10000023219e-08 8.69470499049e-24 0.0 -1.30420574857e-23 -7.10000023219e-08 0.0 4.80000004188e-08 0.0 -1.10000001996e-07 9.60000008376e-08 0.0 -1.10000001996e-07 1.43999997704e-07 0.0 -1.10000001996e-07 2.27355343441e-07 0.0 -9.53553396243e-08 2.41999998707e-07 0.0 -1.99999998785e-08 2.41999998707e-07 0.0 1.99999998785e-08 2.27355343441e-07 0.0 9.53553396243e-08 1.3564465462e-07 0.0 9.53553396243e-08 1.06355336982e-07 0.0 1.46446605953e-08 3.55000011609e-08 0.0 0.0 2.93905532749e-24 4.80000004188e-08 -1.10000001996e-07 5.87811065499e-24 9.60000008376e-08 -1.10000001996e-07 8.81716539083e-24 1.43999997704e-07 -1.10000001996e-07 1.87186159906e-07 4.27240181011e-08 -1.10000001996e-07 1.72986020175e-07 8.33056787997e-08 -1.10000001996e-07 1.5011164578e-07 1.19710037438e-07 -1.10000001996e-07 1.19710037438e-07 1.5011164578e-07 -1.10000001996e-07 8.33056787997e-08 1.72986020175e-07 -1.10000001996e-07 4.27240181011e-08 1.87186159906e-07 -1.10000001996e-07 -4.80000004188e-08 5.87811065499e-24 -1.10000001996e-07 -9.60000008376e-08 1.175622131e-23 -1.10000001996e-07 -1.43999997704e-07 1.76343307817e-23 -1.10000001996e-07 -4.27240181011e-08 1.87186159906e-07 -1.10000001996e-07 -8.33056787997e-08 1.72986020175e-07 -1.10000001996e-07 -1.19710037438e-07 1.5011164578e-07 -1.10000001996e-07 -1.5011164578e-07 1.19710037438e-07 -1.10000001996e-07 -1.72986020175e-07 8.33056787997e-08 -1.10000001996e-07 -1.87186159906e-07 4.27240181011e-08 -1.10000001996e-07 -8.81716539083e-24 -4.80000004188e-08 -1.10000001996e-07 -1.76343307817e-23 -9.60000008376e-08 -1.10000001996e-07 -2.64514969614e-23 -1.43999997704e-07 -1.10000001996e-07 -1.87186159906e-07 -4.27240181011e-08 -1.10000001996e-07 -1.72986020175e-07 -8.33056787997e-08 -1.10000001996e-07 -1.5011164578e-07 -1.19710037438e-07 -1.10000001996e-07 -1.19710037438e-07 -1.5011164578e-07 -1.10000001996e-07 -8.33056787997e-08 -1.72986020175e-07 -1.10000001996e-07 -4.27240181011e-08 -1.87186159906e-07 -1.10000001996e-07 4.27240181011e-08 -1.87186159906e-07 -1.10000001996e-07 8.33056787997e-08 -1.72986020175e-07 -1.10000001996e-07 1.19710037438e-07 -1.5011164578e-07 -1.10000001996e-07 1.5011164578e-07 -1.19710037438e-07 -1.10000001996e-07 1.72986020175e-07 -8.33056787997e-08 -1.10000001996e-07 1.87186159906e-07 -4.27240181011e-08 -1.10000001996e-07 1.39210394385e-23 2.27355343441e-07 -9.53553396243e-08 2.37350036514e-07 4.72118593109e-08 -5.9999997859e-08 2.23578851433e-07 9.26093903786e-08 -5.9999997859e-08 2.01215641482e-07 1.34448001177e-07 -5.9999997859e-08 1.71119836523e-07 1.71119836523e-07 -5.9999997859e-08 1.34448001177e-07 2.01215641482e-07 -5.9999997859e-08 9.26093903786e-08 2.23578851433e-07 -5.9999997859e-08 4.72118593109e-08 2.37350036514e-07 -5.9999997859e-08 -2.27355343441e-07 2.7842078877e-23 -9.53553396243e-08 -4.72118593109e-08 2.37350036514e-07 -5.9999997859e-08 -9.26093903786e-08 2.23578851433e-07 -5.9999997859e-08 -1.34448001177e-07 2.01215641482e-07 -5.9999997859e-08 -1.71119836523e-07 1.71119836523e-07 -5.9999997859e-08 -2.01215641482e-07 1.34448001177e-07 -5.9999997859e-08 -2.23578851433e-07 9.26093903786e-08 -5.9999997859e-08 -2.37350036514e-07 4.72118593109e-08 -5.9999997859e-08 -4.17631198932e-23 -2.27355343441e-07 -9.53553396243e-08 -2.37350036514e-07 -4.72118593109e-08 -5.9999997859e-08 -2.23578851433e-07 -9.26093903786e-08 -5.9999997859e-08 -2.01215641482e-07 -1.34448001177e-07 -5.9999997859e-08 -1.71119836523e-07 -1.71119836523e-07 -5.9999997859e-08 -1.34448001177e-07 -2.01215641482e-07 -5.9999997859e-08 -9.26093903786e-08 -2.23578851433e-07 -5.9999997859e-08 -4.72118593109e-08 -2.37350036514e-07 -5.9999997859e-08 4.72118593109e-08 -2.37350036514e-07 -5.9999997859e-08 9.26093903786e-08 -2.23578851433e-07 -5.9999997859e-08 1.34448001177e-07 -2.01215641482e-07 -5.9999997859e-08 1.71119836523e-07 -1.71119836523e-07 -5.9999997859e-08 2.01215641482e-07 -1.34448001177e-07 -5.9999997859e-08 2.23578851433e-07 -9.26093903786e-08 -5.9999997859e-08 2.37350036514e-07 -4.72118593109e-08 -5.9999997859e-08 1.48177376295e-23 2.41999998707e-07 -1.99999998785e-08 1.48177376295e-23 2.41999998707e-07 1.99999998785e-08 2.37350036514e-07 4.72118593109e-08 5.9999997859e-08 2.23578851433e-07 9.26093903786e-08 5.9999997859e-08 2.01215641482e-07 1.34448001177e-07 5.9999997859e-08 1.71119836523e-07 1.71119836523e-07 5.9999997859e-08 1.34448001177e-07 2.01215641482e-07 5.9999997859e-08 9.26093903786e-08 2.23578851433e-07 5.9999997859e-08 4.72118593109e-08 2.37350036514e-07 5.9999997859e-08 -2.41999998707e-07 2.96354752589e-23 -1.99999998785e-08 -2.41999998707e-07 2.96354752589e-23 1.99999998785e-08 -4.72118593109e-08 2.37350036514e-07 5.9999997859e-08 -9.26093903786e-08 2.23578851433e-07 5.9999997859e-08 -1.34448001177e-07 2.01215641482e-07 5.9999997859e-08 -1.71119836523e-07 1.71119836523e-07 5.9999997859e-08 -2.01215641482e-07 1.34448001177e-07 5.9999997859e-08 -2.23578851433e-07 9.26093903786e-08 5.9999997859e-08 -2.37350036514e-07 4.72118593109e-08 5.9999997859e-08 -4.44532113106e-23 -2.41999998707e-07 -1.99999998785e-08 -4.44532113106e-23 -2.41999998707e-07 1.99999998785e-08 -2.37350036514e-07 -4.72118593109e-08 5.9999997859e-08 -2.23578851433e-07 -9.26093903786e-08 5.9999997859e-08 -2.01215641482e-07 -1.34448001177e-07 5.9999997859e-08 -1.71119836523e-07 -1.71119836523e-07 5.9999997859e-08 -1.34448001177e-07 -2.01215641482e-07 5.9999997859e-08 -9.26093903786e-08 -2.23578851433e-07 5.9999997859e-08 -4.72118593109e-08 -2.37350036514e-07 5.9999997859e-08 4.72118593109e-08 -2.37350036514e-07 5.9999997859e-08 9.26093903786e-08 -2.23578851433e-07 5.9999997859e-08 1.34448001177e-07 -2.01215641482e-07 5.9999997859e-08 1.71119836523e-07 -1.71119836523e-07 5.9999997859e-08 2.01215641482e-07 -1.34448001177e-07 5.9999997859e-08 2.23578851433e-07 -9.26093903786e-08 5.9999997859e-08 2.37350036514e-07 -4.72118593109e-08 5.9999997859e-08 1.39210394385e-23 2.27355343441e-07 9.53553396243e-08 1.87186159906e-07 4.27240181011e-08 1.10000001996e-07 1.72986020175e-07 8.33056787997e-08 1.10000001996e-07 1.5011164578e-07 1.19710037438e-07 1.10000001996e-07 1.19710037438e-07 1.5011164578e-07 1.10000001996e-07 8.33056787997e-08 1.72986020175e-07 1.10000001996e-07 4.27240181011e-08 1.87186159906e-07 1.10000001996e-07 -2.27355343441e-07 2.7842078877e-23 9.53553396243e-08 -4.27240181011e-08 1.87186159906e-07 1.10000001996e-07 -8.33056787997e-08 1.72986020175e-07 1.10000001996e-07 -1.19710037438e-07 1.5011164578e-07 1.10000001996e-07 -1.5011164578e-07 1.19710037438e-07 1.10000001996e-07 -1.72986020175e-07 8.33056787997e-08 1.10000001996e-07 -1.87186159906e-07 4.27240181011e-08 1.10000001996e-07 -4.17631198932e-23 -2.27355343441e-07 9.53553396243e-08 -1.87186159906e-07 -4.27240181011e-08 1.10000001996e-07 -1.72986020175e-07 -8.33056787997e-08 1.10000001996e-07 -1.5011164578e-07 -1.19710037438e-07 1.10000001996e-07 -1.19710037438e-07 -1.5011164578e-07 1.10000001996e-07 -8.33056787997e-08 -1.72986020175e-07 1.10000001996e-07 -4.27240181011e-08 -1.87186159906e-07 1.10000001996e-07 4.27240181011e-08 -1.87186159906e-07 1.10000001996e-07 8.33056787997e-08 -1.72986020175e-07 1.10000001996e-07 1.19710037438e-07 -1.5011164578e-07 1.10000001996e-07 1.5011164578e-07 -1.19710037438e-07 1.10000001996e-07 1.72986020175e-07 -8.33056787997e-08 1.10000001996e-07 1.87186159906e-07 -4.27240181011e-08 1.10000001996e-07 1.65173318578e-07 4.42580549986e-08 1.10000001996e-07 1.48090350649e-07 8.54999981925e-08 1.10000001996e-07 1.20915260027e-07 1.20915260027e-07 1.10000001996e-07 8.54999981925e-08 1.48090350649e-07 1.10000001996e-07 4.42580549986e-08 1.65173318578e-07 1.10000001996e-07 -4.42580549986e-08 1.65173318578e-07 1.10000001996e-07 -8.54999981925e-08 1.48090350649e-07 1.10000001996e-07 -1.20915260027e-07 1.20915260027e-07 1.10000001996e-07 -1.48090350649e-07 8.54999981925e-08 1.10000001996e-07 -1.65173318578e-07 4.42580549986e-08 1.10000001996e-07 -1.65173318578e-07 -4.42580549986e-08 1.10000001996e-07 -1.48090350649e-07 -8.54999981925e-08 1.10000001996e-07 -1.20915260027e-07 -1.20915260027e-07 1.10000001996e-07 -8.54999981925e-08 -1.48090350649e-07 1.10000001996e-07 -4.42580549986e-08 -1.65173318578e-07 1.10000001996e-07 4.42580549986e-08 -1.65173318578e-07 1.10000001996e-07 8.54999
[...]
      <CellData>
        <DataArray Name="rho_e_real" format="ascii" type="Float32">-64051.5457473 -98455.8044858 -122246.110446 -86502.1416299 -53696.3511716 -64271.4278596 -74357.9872561 -7259.2811551 -33966.1042877 -56266.2039595 -64996.9154512 -45378.2002727 -75791.4840834 -72463.3745718 -97679.6416749 -136291.456391 -16333.660431 -11368.6062013 -128063.64087 -102804.791757 -33370.7983645 -46362.9678894 -47503.0377975 -38611.7544152 -42490.0445762 -13205.7281833 -5563.14898038 -24612.3486609 -6475.16088355 -12714.4385524 -30217.9598684 -42345.6703928 -25735.6637316 -14244.2522218 -26696.9540308 47131.3419008 91318.8418158 72286.1591749 62753.3919585 56700.6766214 77510.4947002 112750.305172 62087.8675447 62148.8545538 7035.07642145 36639.9736443 54943.2134019 26548.6535901 14054.8919482 7238.96315432 18912.0213717 86701.786885 128853.285694 39952.5730063 40305.162434 7738.5231347 16081.7929098 30206.610706 78335.0620562 118525.592283 4387.38913366 10937.0446285 12541.5378951 33936.1991482 24128.584772 35896.8294438 39196.2172483 25575.0303259 50205.4451048 51406.9583722 64224.473356 98638.0647729 122395.539102 86673.5532153 53891.4730586 64466.2668125 74549.6394009 7462.00286619 34174.1837944 56402.6445185 65163.5356957 45580.8700473 75924.185987 72572.800254 97738.6668212 136331.845563 16522.7959787 11547.7368104 128146.756716 102922.761227 33565.0513825 46539.3220167 47689.3555434 38804.9449286 42669.1054126 13430.2789269 5793.65920735 24825.067439 6700.18756336 12941.8127266 30430.7274479 42546.8298885 25951.3040006 14460.3258185 26909.7858298 -47038.1230966 -91310.29259 -72257.505113 -62708.6234833 -56617.4591614 -77467.1199447 -112730.555332 -61979.0328841 -62060.8231965 -6847.38315791 -36513.0395591 -54845.7479735 -26401.9399773 -13887.1129254 -7056.55265161 -18722.727645 -86652.6829385 -128845.628868 -39823.7432501 -40190.3676729 -7526.25026165 -15893.0787769 -30051.8682882 -78286.3134529 -118520.100966 -10713.3984376 -4158.7259576 -12329.8983891 -33754.4680722 -23929.5464871 -35740.2563859 -39058.789305 -25389.3415679 -50070.1070916 -51287.5229222 -237324.236033 -142464.627057 -192049.73221 -237132.075479 -186918.710587 -184668.44028 -288133.90479 -308956.673277 -240512.40878 -99771.791025 -144028.28289 -184711.78772 -153609.871972 -64418.8542828 -91106.0160671 -130645.52785 -105334.138207 -169604.906983 -258681.761801 -287835.343585 -200867.308409 -324328.030162 -295353.450653 -14174.3205196 -29826.3321241 -261251.858344 -323743.885916 -256597.51511 -196025.376736 -14165.2131337 -68062.8144466 -60076.8743789 -22623.4135031 196680.017601 149222.697634 230968.870793 239176.830799 167356.884585 64209.846173 89582.0732155 131789.597929 105243.139016 169720.796878 267329.701717 270330.826794 209422.525638 189497.776039 290432.595436 305114.954459 239549.91499 101674.638691 139528.488503 189018.387321 146732.526846 14250.2211645 29650.0721422 324291.795837 295510.358665 14067.6437461 68375.5746832 60343.5797844 21093.9905867 260453.741938 323054.889639 257243.794907 199264.018919 237429.219684 142624.491317 192115.25946 237212.617893 187083.786526 184754.18982 287484.84675 309214.462768 240627.049103 99934.3965971 144131.703063 184782.703835 153788.453241 64583.5455779 91252.8212609 130767.069016 105511.245778 169742.424962 258428.820485 287960.781145 201038.324099 324500.171249 295016.806594 14402.5826878 30020.7113848 261240.861242 323789.7681 256657.951585 196043.632102 14373.9581166 68224.9851923 60248.5384338 22801.4788787 -196727.888652 -169765.377687 -264764.774343 -270272.52062 -209534.732401 -63999.8685017 -90156.7395522 -130459.436238 -105207.963818 -149247.203885 -230648.684134 -239482.390826 -167397.149103 -101605.341633 -141047.973006 -188829.663406 -146979.233386 -189512.267685 -289655.320943 -304651.34421 -239759.402298 -14082.6153641 -29151.1482072 -324154.233307 -295864.882073 -13815.5679962 -67133.8462979 -59947.4179712 -20865.2074945 -260472.57064 -323251.916526 -257261.440493 -199281.919095 -259905.531972 -235510.639996 -78404.1280864 -77894.6749996 -253551.308944 -221460.334138 -249195.880383 -218691.087401 -239510.033574 -271923.036041 -233435.266999 -219457.63919 -199262.761145 -216080.15724 -196544.440088 -185904.977946 -185611.648693 -221042.936235 -207197.639117 -225998.658546 -205817.537725 -243571.050183 -231299.002369 -189598.971559 -178288.426951 -190441.014468 -178388.168732 -245622.878083 -13522.1706469 -131514.399919 -140588.786025 -131367.506096 -142421.380713 -91451.0773339 -11025.417297 -29770.8294241 -17328.288601 -263384.37326 -293289.936472 -30246.4664965 -17441.119442 -10785.6668301 -50565.0489491 -42641.3150193 -50383.2518715 -42565.476771 -245063.260005 -244267.647259 -258224.089324 -178145.843617 -136099.659164 -51702.0091159 -80156.4977195 -89606.3568335 -243412.804533 -293857.115644 -269757.232021 -273131.967969 133935.357598 113656.341172 132795.267114 114086.074804 81501.8448481 67967.7828208 272059.969366 80749.666705 68348.4601267 271684.311558 177226.047917 150818.324862 175697.627738 151116.447303 221683.256657 221246.162848 145454.411252 131713.336351 145316.213805 131364.651504 99985.0017378 93798.7723396 99856.0693932 93428.825025 180090.512157 165027.479292 180072.019776 165037.34916 17423.7397602 247848.126927 246564.996705 201793.72441 246107.705891 204839.428573 233560.536533 264381.212359 290441.479924 245228.667232 293616.251983 244790.272296 264954.85307 260380.786704 240606.078434 260326.006695 240803.758552 182375.459648 185500.905545 248882.799462 216418.832863 230176.676781 12316.9446854 31639.5684175 23163.340202 32141.7769904 23222.7033384 11891.8973385 56375.1717057 50918.8339491 56324.528318 50959.5779659 253457.590883 219088.269711 251605.568314 220046.909604 272818.651687 233149.097512 78547.3979018 270709.766056 234466.626898 78044.380281 218389.466287 197472.318002 216561.45365 198003.413346 185621.07923 185431.755007 222172.198104 204417.621511 222422.095037 203857.456962 245902.308172 229663.903434 246067.031071 228882.462384 189461.148212 176740.722884 189913.572521 176747.907315 240764.229184 13768.4057096 131547.753952 140495.176328 131386.273325 142300.617957 91530.3392915 10897.7381764 29971.798685 17497.7881853 30442.5657716 17684.1703376 11151.2305533 50731.7176305 42795.0723357 50553.6628888 42725.8228707 178041.576824 135756.424593 51855.2199135 80250.8583205 89695.4469457 263694.221749 292407.140788 242339.697564 295446.823405 241279.982526 264375.735843 263457.121805 245557.444834 263689.451068 245928.329077 -270717.940775 -266983.468679 -255966.253766 -250389.140383 -84878.7659056 -73665.9984219 -85485.1050429 -73493.4443252 -136233.232673 -118494.942978 -137300.837862 -118283.885719 -176254.853819 -154237.162811 -178538.33205 -155494.840079 -219477.583299 -222912.985605 -145570.136081 -134640.668211 -146416.021841 -134986.928206 -101485.321675 -98262.1709844 -105125.876783 -101795.024992 -180468.758896 -165687.474718 -181172.701981 -166361.264978 -210137.269989 -208342.175002 -239064.034031 -231599.911459 -18847.8299863 -253383.407649 -276039.741989 -244728.944245 -62451.3596146 -180980.193505 -204231.614595 -196016.208237 -8544.90861185 -42887.3490123 -28307.7627035 -23129.5981542 -54777.8511874 -55351.9145742 -24621.4222859 -32407.2217966 -12147.2482328 -228671.984604 -232906.950508 -222282.32396 -241616.620938 -264166.721197 -291791.972874 -256521.381252 -242449.572358 -243629.512328 -226985.766784 -182998.795352 -221495.543449 -114618.592113 -161990.993312 -284628.567534 -286764.533374 -148091.087233 -206180.139523 -136973.589541 -172414.398285 -78851.8309605 -131105.653375 -87006.9350246 -122657.234175 -52847.9668701 -87706.4537312 -246652.165221 -270502.551155 -134167.186496 -170758.91796 -303350.862671 -282444.842734 -28276.2087002 -13436.03012 -221152.851155 -302295.956873 -219958.022923 -155564.278248 -12355.3416529 -63506.3831802 -53779.7281314 -17845.4765057 188739.642348 220265.586317 226134.762793 117183.599369 140509.919752 85422.6505297 123960.884961 50734.0389165 89749.9801993 254866.657116 252293.407687 133019.366671 178515.148961 277595.241225 285377.344581 147899.171195 206400.928839 132788.49445 176281.769025 80254.6020445 128307.51096 28295.3498149 13717.8112556 281707.558126 303181.684216 14325.8675825 63488.1838804 52051.8266702 20467.4654515 221005.574515 302097.467195 220089.506334 155090.098531 227159.438956 183105.718128 221569.833691 114710.645222 162078.175925 274547.711032 288737.062937 148274.651867 206137.342757 137113.735738 172527.321808 79027.5650451 131247.814304 87193.3210018 122835.624187 53144.0005702 87942.855388 246057.664957 270733.947864 134164.504634 170765.639157 281511.932274 303559.161778 28498.1288643 13692.2531697 221185.258622 303033.165152 220377.221847 155083.357772 12843.3055614 63726.3740078 54139.6009195 18337.505448 -188747.823837 -252925.534263 -251847.507114 -133086.519283 -178839.514784 -85971.6000998 -122811.449324 -51062.8374156 -90083.9609795 -219935.494599 -226355.169694 -117326.279244 -140706.117176 -134388.934902 -176429.350578 -80452.2780678 -128795.615661 -278639.238765 -284499.987086 -148418.622549 -205920.425066 -28177.8537046 -13457.5719204 -302777.167157 -285522.620234 -13787.7511002 -62165.8378613 -51566.8696958 -19900.5465252 -221090.659408 -302772.12619 -220031.717812 -155417.738961 -69342.3660589 -70000.9492767 -89179.1239778 -30277.2076747 -39089.587971 -55360.6142385 -98895.4547253 -88986.456595 -96918.1588747 -7601.02641925 -18232.3026772 -81342.211228 -53413.0307169 54521.3331766 36162.1821363 30721.6450109 93714.8122697 82269.0728692 90290.4870039 3516.4779344 16203.5754448 69487.9413801 53970.5709245 96564.453705 73610.8081436 88755.296962 93304.3995955 30485.1973206 39344.8495681 55540.0737193 69354.1611865 69982.8555186 89092.4398956 53514.3980145 8606.61888652 18366.4265653 81160.7420135 99017.5469188 90189.681696 -96820.5126204 -88428.6433958 -98638.5042771 -2067.3196371 -81032.3898151 -90729.5322347 -32469.2602052 -15606.6471832 -69513.6927118 -54734.0700263 -55443.4495073 -74726.5519088 -41406.5073492 -14356.2766341 -3376.10575915 26663.1796385 14283.5369359 55387.2657377 65735.8359431 -11072.4317821 3466.40463547 54689.9936294 47656.4638388 1446.71148015 -23537.9204337 57299.5034678 70711.766686 -12432.6480535 751.245189015 27909.2586938 39493.6169238 -2582.88472327 -3122.58163871 -6435.37024104 18244.2520992 13909.0217887 2410.44920356 -56143.6682714 -65993.4940937 -27900.7044677 -14877.7743873 12439.5856614 -1253.97135809 -27687.7127276 -41189.4405461 1670.28946137 5944.44447391 5655.02695577 -19787.3976666 9352.08566964 -3235.56647842 -51494.1718445 -47903.7341231 22904.8801698 -1417.81268779 -57890.3941543 -71713.9616207 14267.179775 4794.24627911 -26996.7204733 -13963.4407408 -56213.8599065 -64265.8033156 10908.4210548 -3646.04143062 -52613.0733012 -48147.8819877 23309.7911372 -1542.10706238 -57770.7751399 -70942.7901076 12364.196545 -730.856691641 -27993.6492076 -39512.288224 2670.48884626 3835.45672904 6803.16282052 -17723.2068803 -14371.289772 2624.45050997 55557.1309125 65800.9064414 15501.2939392 9634.29954163 -10419.7477539 27701.040605 -7101.29109246 5563.70427731 54602.5138265 47248.1160445 1271.7775969 -23564.8028261 56904.4372252 71272.040624 -974.559601591 -1750.38111004 39138.3459584 4381.57817777 2034.57898811 44117.0861464 60831.8139263 43024.3009192 54579.0878541 13947.49581 28719.903635 30178.0610268 -33017.9871964 -32036.4366026 -50085.0457129 -50476.5389758 -53760.1732936 -64326.9493247 -15300.9817345 -1779.71222781 -9002.13764823 -2820.99483284 -60246.3546427 -62131.6589561 -56045.1221615 -45033.951342 -30618.6463581 -31597.4775907 57071.0925796 45251.0217377 53809.5454019 32635.5604779 53712.2323231 62422.5447799 25300.3928952 16359.6955166 36981.0052575 26006.4639329 24080.9902855 14392.3062839 1761.65012227 8752.75275914 -3719.25323759 19938.8618575 10655.9528443 6742.70042612 1321.06809945 4263.55536279 2088.88773495 29136.1614594 33919.6465296 41589.4459934 4939.87185342 6187.01773905 9742.86096681 -27102.5938454 -36343.8652178 -23930.0157823 -30309.5703433 -2377.99438168 -8969.14879239 -17456.4688458 5174.88627118 -41244.2435755 -33654.6887991 -5592.07717488 -6328.24408011 -10181.9719544 -13728.2676761 -11548.3241401 -7358.23746846 -2389.38237136 -5444.4024579 -3624.22431879 -34001.4427357 -26085.5674573 -24103.8378521 -15084.2616354 -2162.30247486 -9265.12761584 3300.07289269 -20253.9063101 -11420.5429277 -7703.32213522 -1682.81845489 -4770.37939769 -2555.73078893 -29878.3699039 -42264.6890086 -33640.4193543 -5525.64465566 -6416.89631403 -10099.8749501 21460.7322238 35933.4511239 23471.3505659 29630.2025641 1799.97596506 8376.06541647 16930.0898046 -5840.21056309 34151.2019035 41556.098312 5022.41007328 5789.39352942 9473.60471134 12156.0455224 4191.62712045 6455.67478329 1719.54799387 5106.31119228 2950.71435182 -720.309550387 -432.670128935 -1634.27439103 -2152.39539176 -1904.61351127 -445.998601311 -400.481308224 85.0515525507 369.125885267 1363.3330063 784.576501341 660.956814231 2406.66033727 1431.41596301 271.401297697 32.9776468365 1572.98746559 1181.86167202 2263.02085342 -13.6523039426 -28.0036670838 -726.074854812 -472.662523107 -1840.43348981 -1220.72097317 -1192.83660072 -1683.73354324 -2427.40405315</DataArray>